 105  105
1 1
    19.976751358391212     0.667803063149755    -0.031453879350513
     0.667803063149755    16.653258218429251     0.227268502531693
    -0.031453879350513     0.227268502531693    14.767601251347999
1 2
     0.260512922874631    -0.078829923256247    -0.093481820196965
    -0.079383810332933     0.245959851421646    -0.019001228748693
     0.068761751684003     0.017545583557811    -0.301915959739214
1 3
     0.000422819621961    -0.000282593067026     0.003013841112682
     0.000229186586164     0.000833984666154     0.001033899681415
     0.000892510149348     0.001020277818418     0.002417025677489
1 4
    -0.000317452257356     0.001306125881138     0.004745795130788
     0.000896672810943     0.000002336898915    -0.000006032767386
    -0.001825697566575    -0.001018510177948     0.001597068818408
1 5
    -1.290160469489873    -0.055574683948588     1.145961056541110
     0.356926771782546     0.462154546143142    -0.315910023914778
     1.556408802338649    -0.016283265975643    -0.859361462521309
1 6
     0.070648233101416    -0.027086162008808    -0.006306509487454
     0.019510819315767     0.029659214660342    -0.026266436887143
    -0.057930550858776     0.041292475609912     0.033093957894764
1 7
    -1.422224153201107    -0.150580734062455    -1.071179562569539
     0.447447402334223     0.445940930288907     0.314688508489190
    -1.476528820900677    -0.129245798486286    -0.638791211160076
1 8
     0.001432923608590    -0.001164456645115     0.001609481812783
    -0.000707488518653     0.000040591820011    -0.000944741161793
     0.000754018590277     0.002558821089219     0.001709932098404
1 9
     0.000142636034143    -0.000072197146754     0.000827300200399
    -0.000005629284843    -0.000857232063806    -0.000041741843447
    -0.000157244948133    -0.000038458492885     0.001608551288495
1 10
     0.001496974507495     0.000707567205421     0.000989866510775
    -0.000087504522105     0.000124093952808     0.000128033540402
    -0.000490071976370    -0.002372575554168     0.000644228536431
1 11
    -0.094871023077253    -0.140705255848750     0.420740959786751
    -0.185434505520892    -0.133962898793550     0.406852309551223
    -0.174013515154352    -0.032403075568916     0.119073320318387
1 12
     0.047133501565995     0.015317817935793    -0.001147311477075
     0.057674160564573     0.021357505416322    -0.014061383996165
    -0.007704593507293    -0.014393539600336     0.028140415506437
1 13
    -0.129449667559551    -0.180586290113730    -0.470857762390937
    -0.219421650137470    -0.160814112429651    -0.426629998184586
     0.117520606701357     0.012303063474825     0.120517812181243
1 14
    -0.021505894964706    -0.052119249706356     0.029777041658937
    -0.005088795285255    -0.002977953376409    -0.001611555478353
    -0.036960171883850     0.023380079029370     0.062458493445908
1 15
     0.025212242666284    -0.032435761685167    -0.073052113110892
     0.001772263000082     0.024317666815914    -0.001407914552131
    -0.046928198767417     0.026782336382728     0.021452457726269
1 16
     0.000597554771103    -0.002274188264573     0.054660508787344
    -0.012160259533186     0.031164979649749    -0.013966965670798
     0.055072617429847    -0.024781524248619     0.041629098178424
1 17
    -0.005888045035650     0.027257740298143    -0.001529674046913
     0.001285883528323    -0.005673365652572     0.000323149752438
     0.000634073832407    -0.000880665690184     0.003897452934650
1 18
     0.000158698495462    -0.001033580948878    -0.000310028554389
     0.001307513149164     0.001426826392247     0.000453621067627
     0.001146346182204    -0.002780130950107    -0.000930304669000
1 19
    -0.003785516610983     0.020410537929152     0.017101381436983
     0.000581507991860    -0.007499628202303    -0.007089321665847
    -0.006112191071582    -0.003225010446157     0.005885207153243
1 20
    -0.006240436521887     0.018475651623398    -0.002536479506812
    -0.005600010320389    -0.001873468786709    -0.003486188054631
    -0.007369416474788     0.007180165797013    -0.014735084307616
1 21
    -0.009848328147204     0.023467051207223    -0.020107253584496
     0.003692211960323    -0.008950432672905     0.006021850484931
     0.008864960452497    -0.005527229887135     0.014254834712459
1 22
     0.000141318271195    -0.000775092484721     0.001363531328842
    -0.000344256385777     0.000455023966256    -0.000766268370553
     0.000882184489619     0.002078746358669     0.000728311747445
1 23
     0.000408495911160     0.002173166315279     0.002438923659436
     0.000298607894172    -0.000058094372735     0.000590530533277
    -0.001802592204194    -0.003255977755696     0.000359766687614
1 24
     0.000219868660625     0.000836458872675     0.001879064180734
     0.000746655241875     0.000409938812765     0.000543463701590
     0.000058193790463    -0.001790452637676     0.000997133910994
1 25
    -0.017824226244274     0.017786532435539    -0.004350283830033
    -0.000438662548313     0.016481019287540    -0.002855102251778
     0.015684586163396     0.002791934900963     0.004937561424373
1 26
    -0.004037771241009     0.008235491673826    -0.000017276419706
     0.007742610758308     0.002211138024465    -0.005606145616121
    -0.002327348736978     0.002249690913677    -0.002369851969501
1 27
     0.009527553585199     0.009032162759689    -0.001924001952671
     0.007262361645410     0.002383013223881     0.001961572676353
     0.015337711170780    -0.002256988406177     0.004045005400614
1 28
    -0.000223756784061     0.001304201487399    -0.000197597794338
     0.000164872399614     0.000761024938949    -0.001224693222784
     0.001309480255185     0.000103340921791     0.000614616077115
1 29
    -0.001391636671104    -0.002307962748070     0.000030673912125
     0.000609292844767    -0.000353892071540    -0.004556373413756
    -0.001591976471495     0.005219608874861    -0.001173018333752
1 30
    -0.000135373497499     0.001549442554585    -0.000706243663924
     0.000848574708643     0.000213120658697     0.001876571552948
     0.000149713757411    -0.003006417964678     0.000152697504343
1 31
    -0.007387661912206     0.000631002406816     0.002912838114842
    -0.000293708610978     0.001258419945444    -0.004248862353613
     0.000927729453850     0.002158094950769    -0.001939141382644
1 32
    -0.000460462637812     0.002529357103668    -0.005593488019371
     0.000223253527602     0.000307929705147     0.002003990802052
     0.003398274163971    -0.005880656643448    -0.001923582777579
1 33
    -0.011828322208377     0.003348234530277    -0.007019504504843
     0.001834480190776     0.001059153689613     0.000399955495923
    -0.002378537263805     0.001225062501724    -0.001063025544113
1 34
    -0.134945540258333    -0.035267983432347     0.002009793933213
    -0.062361772407760    -0.020606314181279     0.003154917691351
    -0.004925641119270    -0.001015351509375    -0.027036647926583
1 35
    -0.010586248713038    -0.012591448467897    -0.009322768647095
    -0.021260243087906    -0.013357771136950     0.001403601400970
     0.017590732715666    -0.012914210594122     0.004613554373601
1 36
     0.003854666170165    -0.012960871952321     0.006276270184605
    -0.004903250808285    -0.009268065645464    -0.004596124934086
    -0.034341463353183     0.009658392160902     0.011133633258517
1 37
    -0.000150530534869    -0.000976625628748     0.003245700448724
    -0.000022549904385     0.001178351376523     0.002215427404348
     0.000505264988831     0.000104437539047     0.002746520654783
1 38
    -0.000663446185168    -0.001085205421454     0.003510128038203
    -0.001640285679183    -0.001189291403990     0.005400785492815
     0.000260408199856    -0.004059819874463     0.002778031932496
1 39
     0.000028667777257     0.001143032473191     0.003034459963258
     0.000461405516658    -0.000348349083351    -0.001507915019532
    -0.000162579061715     0.003912040831259     0.001791545580477
1 40
    -0.000615674476706    -0.004523357823956     0.002152111773083
    -0.002388895780696    -0.004647508002319     0.004644634709362
    -0.000422722134661    -0.005912236010746     0.001194555717817
1 41
    -0.003319277275375     0.000754434667062    -0.001089190980274
    -0.002612776488394    -0.002672080941800    -0.002888592968235
     0.002865073310625     0.006384963809855     0.002019364050951
1 42
    -0.001839942937965    -0.003443860030087     0.001640734133563
    -0.001998427800013    -0.004837275918979     0.000330546886539
     0.000966771156944     0.005053525643476     0.001797425980268
1 43
     0.006970597306865    -0.021775646783034     0.002141608116428
     0.006279866925157    -0.019387126512461     0.001222351470305
    -0.000569349653112    -0.000705887255895     0.003651249542376
1 44
     0.000021929894270     0.000571603903044     0.002921204024577
    -0.001534731721167     0.000268025739630     0.003972870879400
    -0.001259250875002    -0.000819622260348    -0.000865655705633
1 45
     0.000731172958238     0.004353528697844     0.000907133694539
     0.000738632570264     0.001546301977986    -0.001621788735380
     0.000981541591861     0.000964530605709    -0.000464556278183
1 46
     0.292482854111419     0.242048318287611    -0.023304535110382
     0.323972743812005    -2.389033075392395     0.030840190639269
    -0.046444522475909    -0.117114674307619     0.351951021334582
1 47
     0.189126042878338     0.049800316945606    -0.010180414936275
    -0.136883902952566    -0.138095208534901     0.227321298458797
     0.142742929891305     0.088366199624574    -0.178275387015449
1 48
     0.215646722024531     0.091276448175328     0.029283606634740
    -0.121612511718108    -0.169917122824389    -0.214447136693295
    -0.230789570970624    -0.204017055886425    -0.245476975387648
1 49
     0.000709670120070    -0.001077163532505     0.001816401191813
    -0.000584814458445     0.000717380913425     0.002064998339797
     0.000739444087098    -0.000537536645587     0.001757792033099
1 50
     0.001455584804460     0.002610011754063     0.001988212539183
     0.001200952581783    -0.000514572248072    -0.001041284728362
    -0.000129724902443     0.000843643058118     0.001091299606613
1 51
    -0.000608302988584    -0.000183349735467     0.002728078167148
     0.000565850777464     0.000726200186912     0.000141491911582
     0.000752958497045    -0.000036023327904     0.000704633991083
1 52
    -1.009053270287685    -0.492298511751289    -1.273267191282867
    -1.095085719413929    -0.027897443091305    -0.880680210198687
    -1.117861788251201    -0.314965076139345    -0.724762004264274
1 53
     0.058500649899447     0.010145395950981     0.015957110839560
     0.024592885383616     0.044139039358991    -0.028983761808389
     0.050640344363864     0.038143958974341    -0.028489617158468
1 54
    -1.069983432513486    -0.536098503322417     1.274037112540362
    -1.079582499880639     0.074992545592703     0.896910398620218
     1.002065182650969     0.335975902841769    -0.691049420842301
1 55
     0.000334518529681    -0.000752972312447     0.003333552908437
    -0.000379171751648     0.000390499247891     0.003951828556729
     0.001917950519148    -0.002243046144880     0.001903373029816
1 56
     0.000017029096622     0.003040855549738     0.004086883383992
     0.000541514772386     0.001148893276971    -0.001653578102859
    -0.002416325936024     0.003580456454812     0.002330467375096
1 57
     0.000401071866755     0.000072917988651     0.004090568949691
     0.000357954695612    -0.000282510579393     0.000819883818242
    -0.001397933858769     0.000007509490063     0.002749755316296
1 58
     0.021754511173104     0.019400008558355    -0.028575404373656
    -0.009024505808462    -0.030612229614053    -0.012534335448888
    -0.021940056626486    -0.004057727091608     0.065193779147460
1 59
     0.047467194226739     0.051049656284375     0.061226608980142
    -0.007113229512826     0.003203100566687     0.014039228850828
     0.031780813654896     0.069647073259752     0.033382461906420
1 60
     0.028908488674639    -0.008670812859265    -0.028039896329813
    -0.003515145939503     0.002085865404840    -0.018960848302324
    -0.041996381962283    -0.052986896508869     0.045034101997664
1 61
     0.000678172883114    -0.000752235587365     0.001802257422959
    -0.000096259894521     0.000734964790467     0.000609440323462
    -0.002010686119970     0.000806306080737     0.001340422685003
1 62
    -0.000410588789334    -0.002992854773090     0.001208967129648
    -0.001539158026286    -0.001304810985292     0.000903464716989
     0.001975055311269     0.000573555874589     0.001625881407032
1 63
     0.000718856434668     0.000469223701354     0.003278167930005
     0.001444957798897     0.000519282258529     0.000089828571379
     0.000396832088558     0.000195893876408     0.000883495278259
1 64
    -0.010959210227429    -0.033903402301540     0.000440843843307
    -0.004541588971195    -0.010264033238418     0.005171261740061
    -0.008734105992834    -0.021828550219406     0.007277473183150
1 65
    -0.000021591886869    -0.020563343149755    -0.001468327677174
     0.003953843651664    -0.002485683458214    -0.002344153259482
     0.002017205884700     0.004551362313787    -0.015784342919135
1 66
    -0.011078679277877    -0.024915224952445     0.004513873731656
    -0.002822383120753    -0.009557748231898    -0.002091129405547
     0.008892658442752     0.013626949786977     0.012225359863745
1 67
    -0.136603960156921    -0.010244870895071    -0.035057423127575
     0.177119565385799     0.027997605460708     0.028019978288381
    -0.198418821942906    -0.067794859044470     0.060314744106815
1 68
    -0.021198440603265    -0.044923625674786    -0.012782403334670
     0.005032095515097     0.041638718512345    -0.008874599679633
     0.011260417725501     0.018464495136345    -0.006812372487676
1 69
    -0.226814679188953     0.058399415961807     0.004716546173969
     0.189089263673925     0.023312968599174    -0.020835355871680
     0.213828123330729     0.080565745227044     0.038267480933452
1 70
     0.065711013143489     0.029737597581128    -0.003095841984574
    -0.016734100388646    -0.008012244984678    -0.001166047653200
     0.003210968955670    -0.004657360423466    -0.007653856754704
1 71
    -0.012103637673689    -0.004745972755694     0.005379578019942
     0.003124190678996    -0.007178570451867    -0.006609122960430
     0.006949595346361     0.008992015574933     0.004800436009672
1 72
     0.002150539715445    -0.007982920128321    -0.003842503865631
     0.002086323729214    -0.002343555721404     0.000153497472825
    -0.000376206332250    -0.008761213315055     0.006956160429716
1 73
     0.001346329780761    -0.001197232862836     0.001980112599002
     0.000279499586210     0.002199489794274     0.004712681159860
     0.000554682013725    -0.000123294532055    -0.001943517014367
1 74
     0.004435250495471     0.005118620478698     0.002086250452748
     0.000795383036176     0.005938787703874    -0.005142679001130
    -0.001497245543183     0.004275121746072     0.000180870219826
1 75
     0.001659002573304     0.000802403456617     0.003743996387633
     0.001857596397869     0.001774821587180    -0.000527450197953
     0.001151417536987    -0.002244208600095    -0.001564045126157
1 76
     0.001038826776202    -0.002400639122126     0.001244062142538
    -0.000156948545882     0.002930625382272    -0.000705784305148
     0.000311593330062    -0.000008981439067    -0.002396073590911
1 77
    -0.000766812774566    -0.004774290729639    -0.003736983503044
    -0.002567406432143    -0.003447118656938    -0.000464635970297
     0.002017720420402     0.009247489728179    -0.001336013205390
1 78
     0.001191346728979    -0.001196037725296     0.005052463736062
     0.000175900106283    -0.000289864788913    -0.001132441680976
    -0.000261190416599    -0.005905117608396    -0.002026955906493
1 79
     0.063089574745309     0.050133623707360     0.027883803760876
     0.025560404358863     0.017206933086941    -0.010009619149568
    -0.010742280940413     0.013801360247828     0.000536372906841
1 80
    -0.011233372343717     0.000377055268018     0.002934119329311
    -0.010689960673821    -0.000741355003667     0.003951141721427
    -0.009872030035057    -0.015625096776228    -0.005651512190019
1 81
     0.054766962345818     0.052416723187043    -0.016019530922737
     0.019107231551855     0.017663020386097     0.018805163803059
     0.025695173322307    -0.014656900172806    -0.009012992007700
1 82
    -0.235812321041248    -0.017613809072366     0.090376433325142
     0.157457419806296    -0.038942631871852    -0.042284591934686
     0.376056919578069     0.102291682154144    -0.128639304021206
1 83
    -0.042328718001036    -0.001452137870136     0.007665134544156
    -0.007864176926213     0.003631377296398     0.003310626645346
     0.006704102374624     0.004859038065356    -0.003531644580350
1 84
    -0.184045056229825     0.020126721522878    -0.118491669661496
     0.137070911415640    -0.026220238784160     0.010168925947567
    -0.309790289827354    -0.107275645580767    -0.218662161713195
1 85
    -0.796180272159746     0.037570187361024    -0.023971344110154
    -0.033977593880821    -0.008046632737278     0.011655999849654
    -0.018279991827333    -0.035878630156563     0.390349925092351
1 86
    -0.190599258141248     0.015231358308125    -0.128310677937639
    -0.168735297815049    -0.035627058074390    -0.122043853741531
    -0.110076696494415    -0.032653938998804    -0.052419466158821
1 87
    -0.195117190917649     0.026937313382525     0.119139175794151
    -0.165152093826789     0.000353015858844     0.150043884499327
     0.086882103948183     0.006454105122296    -0.069786986065236
1 88
    -3.551236254963920     2.905791394937030    -3.222285225739367
     3.009327786577031    -4.202723454071732     3.829416033907254
    -3.499189431043704     4.139081225190623    -5.514852307236501
1 89
    -0.064274012802431    -0.145768229800810    -0.058432349180015
    -0.136140959260371    -0.091825834206099    -0.004806488276239
     0.007716074021326    -0.015405012084727     0.121944801926917
1 90
    -3.911143438059208     3.150762746834978     3.404470156845577
     3.245023587303003    -4.711368886663892    -4.054393934096005
     3.559159477720288    -4.114891931483631    -5.278846201132115
1 91
    -6.616295804212340    -5.203259711148201     0.044473000251106
    -5.212241400232484    -5.663482131776476     0.120674439018953
     0.128789662130364     0.113206295742516    -1.228006283059166
1 92
    -0.055804623195877    -0.122517562388338     0.307488147475314
    -0.040483398136659    -0.110192301929210     0.109142884033117
     0.263650098387581     0.081329912878096    -0.079241623841533
1 93
     0.076825876355307    -0.148386871937242    -0.383147169581775
    -0.041885346221552    -0.140685171716506    -0.167094380219711
    -0.280809852731316    -0.117187861818437    -0.060357047007226
1 94
     0.001048464478783    -0.002023205023085    -0.000379810956658
    -0.000324718938023     0.000581665563818     0.000496808959125
     0.001264149021096     0.000503764630068     0.000678118565149
1 95
     0.001029030311833     0.004244468858522     0.004833063046240
     0.002167274851957     0.001148564375315     0.000938654225043
     0.000073331336715    -0.000463088578724     0.001606130844359
1 96
    -0.001109761189073    -0.000662967465603     0.002989937236600
    -0.000078472642500     0.000261269488383     0.000569152983182
    -0.001242495759563    -0.001306442066146     0.001157891108534
1 97
    -0.000315571734393     0.000510996098964     0.002969333557676
    -0.000710513232173     0.001517086839538     0.000864145473033
    -0.000168296426380    -0.002470691740118    -0.001641048602029
1 98
    -0.005725866736062    -0.002408593898138     0.001235602928529
    -0.001763198426569    -0.001827536386890     0.007439088419428
     0.002258793607880     0.000020834593369    -0.001364387924343
1 99
    -0.000207767559694     0.001356820864307     0.003803970962977
     0.000347792525479     0.001215073063987    -0.003508079444231
    -0.001199809279076     0.001087170218393    -0.001975379142923
1 100
     0.002368214412934    -0.014421722171759    -0.004886281441172
     0.001358544328603     0.004387725246959    -0.001183380473525
    -0.001623003385190     0.003513203748926    -0.002625659610731
1 101
     0.005116193753226    -0.001478502738704     0.001909369377713
    -0.001050965125463     0.004536580855959    -0.000885179627767
     0.003603058028067    -0.001334234100650    -0.000424626007581
1 102
     0.000603287295669    -0.009847663948218     0.002572971337115
     0.001485725800892     0.001910452416147    -0.001360367630520
    -0.000462104380833    -0.005827584320035    -0.002874964034837
1 103
    -0.006293260950289     0.013810153060523     0.001112813895032
    -0.013647452984640    -0.006559840680908     0.001129553609537
     0.000463878238345    -0.000530803125610    -0.001517055118207
1 104
    -0.001446213330159     0.008185291988125     0.001439548329393
     0.002244917533977     0.001315597997212     0.004855033778009
    -0.002747213926849     0.000548183785143    -0.001992206232865
1 105
     0.001476812570546     0.007547821944386     0.004274488958741
     0.000993921783698     0.003861368938815     0.000357725536022
     0.001237802387772     0.001560757499550    -0.002223392286986
2 1
     0.260512922874631    -0.079383810332933     0.068761751684003
    -0.078829923256247     0.245959851421646     0.017545583557811
    -0.093481820196965    -0.019001228748693    -0.301915959739214
2 2
    20.119148028247796     0.913915669239875     0.020748072563970
     0.913915669239875    16.797310754872047    -0.364720362419898
     0.020748072563970    -0.364720362419898    14.371743184478788
2 3
    -0.001402365554865    -0.000381494454546     0.001647253723400
    -0.002201526574227    -0.000614670585529     0.000167133564511
     0.004068776726182     0.001389467145610     0.002986712852603
2 4
    -0.000349684556581    -0.000325749172464     0.002874677160262
    -0.000397049017129     0.000182253506241    -0.000250975167758
     0.000723362316643    -0.000531660676176     0.002123552785236
2 5
     0.074677629822225    -0.031772679612940     0.003821769718435
     0.024863348254351     0.020943068484643     0.027088319528364
     0.068529558208199    -0.044551045103945     0.018835210235033
2 6
    -1.362017113101691    -0.067406901889620    -1.109073891450399
     0.405784075575970     0.471486251430195     0.305442262369534
    -1.547909739564030     0.017261992617863    -0.774024590871483
2 7
    -1.316803484355761    -0.158608962925036     0.971859532877399
     0.429828916942785     0.438181686635103    -0.298400185195261
     1.401752981806600     0.121913734238024    -0.600751056310991
2 8
    -0.001321213201840     0.001702154748891     0.000216261969865
     0.001506662323382     0.000580994975187     0.000846768541839
     0.000749725467257    -0.000395505974736     0.002143103857537
2 9
     0.001398610296945     0.000262357174355     0.001894969442508
     0.000149818688623    -0.000000949547997     0.000119123968449
    -0.000255114735615    -0.000469134021837     0.002616810413837
2 10
     0.000200247957875    -0.000228534743437     0.001372982155218
    -0.000741054529082     0.000909049616689    -0.000572573580937
    -0.001026636491587    -0.000908465361479     0.001373411443552
2 11
     0.047805097306444     0.016669027569899    -0.011952306081607
     0.062458732552427     0.022036884267894     0.017335186579856
     0.014940029044707     0.012864312387846     0.026078383340684
2 12
    -0.090827816840127    -0.151572604203330    -0.441685854286924
    -0.174359677663806    -0.143176407090233    -0.414411175819630
     0.166074619262079     0.030670762589878     0.140217035619269
2 13
    -0.148145276284580    -0.193397842396965     0.484832087587532
    -0.226031596902680    -0.156909519791173     0.433203893734576
    -0.120452849935965    -0.010706246652784     0.117416423355109
2 14
     0.002485154113362    -0.004005163234217    -0.059052507559550
    -0.012486319935934     0.029958574979831     0.012927425810049
    -0.056887369552363     0.021593139285184     0.036435499654859
2 15
     0.022028808525923    -0.030870385092365     0.077469560553912
     0.005440922903773     0.024366799043113    -0.000516821466041
     0.041288867061647    -0.026180179047609     0.027949600837477
2 16
    -0.039459579534934    -0.035460851430970    -0.013422683129756
    -0.016785575333864     0.005242699873126     0.006658348447954
     0.005265795954856    -0.009978266757443     0.074326764326984
2 17
    -0.000069630944940    -0.003882633600339     0.002009760454533
    -0.001193371876585     0.002164757592611    -0.002902927349951
    -0.000047829655262     0.001731258565934     0.001053708758825
2 18
    -0.006937633493011     0.028055579987055     0.002330716159613
     0.001348490297219    -0.007176052363073    -0.002413540917399
    -0.000757157934684     0.000816967471631     0.004001677587523
2 19
    -0.003937148169815     0.020042243840105    -0.000663514629883
    -0.001238270462963    -0.000385505496117     0.000141237776622
     0.005186732708564    -0.005066764194597    -0.013600354648142
2 20
    -0.001771322955271     0.022402531161856    -0.016828981208462
     0.000231592434813    -0.006907798652477     0.002943916833508
     0.007406493247034     0.000800997270426     0.009872201682633
2 21
    -0.006867463690310     0.017364250144925     0.014059773968261
     0.001433384068280    -0.007442669674620    -0.006359745224957
    -0.005319371035927     0.002297912036385     0.012530333033042
2 22
    -0.001145256872845     0.001185645979780     0.002461926954092
     0.001149177425815    -0.000820715670547     0.000228720351910
    -0.002576910205896    -0.003623886692902     0.001924679808606
2 23
     0.000025123621290     0.000434041150657     0.002279915663754
    -0.000069942214971    -0.000026221381676    -0.001045803688914
    -0.000861430984060     0.000046494091228     0.001611399734414
2 24
    -0.000284783344421    -0.000610445111256     0.001871854999055
    -0.001036038401963     0.000108341133206    -0.001546050897709
     0.001711762361511     0.001200778444651     0.002207547480914
2 25
     0.007619022495564     0.008815234835969    -0.000403550954633
     0.005083595161935     0.001574913661276    -0.004214143217773
    -0.016963261817165     0.003522974345075     0.003963631613456
2 26
    -0.002295524938392     0.008738695979625    -0.005337189625883
     0.011161625310137     0.002267311510825     0.003329060378745
     0.002807811075066    -0.001930819212715     0.000129542215676
2 27
    -0.011544411913316     0.020794483742159    -0.003119463754822
     0.000180996509943     0.015577586615488    -0.001717753396162
    -0.009301777664909     0.000612903190713     0.003739237468851
2 28
    -0.000853053426169    -0.000354702585212     0.002096951426859
    -0.002052886418071    -0.000544909507824    -0.004498953053132
     0.001241589629402     0.004448464492375     0.001639582921283
2 29
    -0.000833660555543     0.002343428188069     0.000738630594840
     0.000256734679877    -0.001388365639895     0.000131547830027
    -0.001125957453754    -0.002640935603171     0.000186107066870
2 30
    -0.000836990283826     0.001019045859496     0.000871975070268
    -0.000345071800960     0.000026630605044    -0.001642895885759
    -0.000651684974871     0.001423391806960     0.002199400019383
2 31
    -0.002130835524239     0.000840413597046    -0.004925178885333
     0.000654667061524    -0.000165169905013     0.002985890504081
     0.004477364172950    -0.006157495033045    -0.000375950385835
2 32
    -0.008365106194866     0.002251376680505    -0.004212065930131
     0.000907323378661     0.000391078748189    -0.000618299591744
    -0.003642103680267     0.000416749727452    -0.000766157620948
2 33
    -0.012169918872449     0.004030461458902     0.004733497751208
     0.000302848104816    -0.000378844062529    -0.003917077602050
     0.004195547019655     0.001696729637749     0.000384745354778
2 34
     0.002282075917231    -0.014494246197274    -0.006840950645818
    -0.005931887575013    -0.009150694604697     0.007386694069537
     0.031425740000643    -0.010512117060395     0.010695761085780
2 35
    -0.010395352715443    -0.011157241386705     0.010492978403448
    -0.016401824938571    -0.012541433654327     0.001397083096233
    -0.015902953192275     0.015697526405780     0.000355167559140
2 36
    -0.136442141297595    -0.034070659303033    -0.001758062786023
    -0.064147927322803    -0.021234787826981     0.000126316722289
     0.002649267921163     0.001483571240600    -0.028607033278072
2 37
    -0.000680419918393    -0.000505936850822     0.002466492083555
    -0.002234355049880    -0.000684941904177     0.004786403340449
     0.001546017008962    -0.005104161502409     0.001452823469169
2 38
    -0.000787920234265    -0.001464372114441     0.001968942459658
     0.000841498752380    -0.000844564341395    -0.002822485336495
    -0.001180067089524     0.004720736756091     0.002113056563300
2 39
    -0.000616870062559    -0.000747912984048     0.002564921693309
    -0.000481846641979     0.000830752328838     0.001647625068204
     0.000186476924413    -0.001174852522266     0.001109560546965
2 40
    -0.004511863019447    -0.001952294195711    -0.001847286337560
    -0.001722153215988    -0.003195739425049    -0.005199750524932
     0.000636509023375     0.006258033718996     0.000124582807492
2 41
    -0.000359567451313    -0.002310627282308     0.001868045812899