phonopy:
  version: "2.21.2"
  frequency_unit_conversion_factor: 15.633302
  symmetry_tolerance: 1.00000e-05
  configuration:
    dim: "1 1 2"
    band: "0 0 0   0 0 0.5"
    band_labels: "$\\Gamma$ Z"
    band_points: "501"
    fc_format: "HDF5"
    read_force_constants: ".TRUE."

physical_unit:
  atomic_mass: "AMU"
  length: "angstrom"
  force_constants: "eV/angstrom^2"

space_group:
  type: "Pmc2_1"
  number: 26
  Hall_symbol: "P 2c -2"

supercell_matrix:
- [   1,   0,   0 ]
- [   0,   1,   0 ]
- [   0,   0,   2 ]

primitive_cell:
  lattice:
  - [    47.037498474099998,     0.000000000000000,     0.000000000000000 ] # a
  - [     0.000000000000000,    47.037498474099998,     0.000000000000000 ] # b
  - [     0.000000000000000,     0.000000000000000,    21.102861404399999 ] # c
  points:
  - symbol: As # 1
    coordinates: [  0.356515129995275,  0.530520277437623,  0.270502748223393 ]
    mass: 74.921600
  - symbol: As # 2
    coordinates: [  0.401826193567968,  0.390998575349599,  0.770502731333552 ]
    mass: 74.921600
  - symbol: As # 3
    coordinates: [  0.407755468429872,  0.446742590332082,  0.273331179536509 ]
    mass: 74.921600
  - symbol: As # 4
    coordinates: [  0.500000017786735,  0.393485202448282,  0.773331146210068 ]
    mass: 74.921600
  - symbol: As # 5
    coordinates: [  0.454688913535322,  0.360478280563949,  0.270502741916924 ]
    mass: 74.921600
  - symbol: As # 6
    coordinates: [  0.598173807911805,  0.390998576575185,  0.770502729476331 ]
    mass: 74.921600
  - symbol: As # 7
    coordinates: [  0.358207501860851,  0.477630909812363,  0.102924801001207 ]
    mass: 74.921600
  - symbol: As # 8
    coordinates: [  0.448475961523505,  0.366019533287073,  0.602924824533004 ]
    mass: 74.921600
  - symbol: As # 9
    coordinates: [  0.409731529587856,  0.388388643506436,  0.102924786502568 ]
    mass: 74.921600
  - symbol: As # 10
    coordinates: [  0.551524042098419,  0.366019534940308,  0.602924805781518 ]
    mass: 74.921600
  - symbol: As # 11
    coordinates: [  0.453948802344033,  0.579416327546847,  0.449678242790792 ]
    mass: 74.921600
  - symbol: As # 12
    coordinates: [  0.408197821254410,  0.499826669233696,  0.949678257836096 ]
    mass: 74.921600
  - symbol: As # 13
    coordinates: [  0.499999999303255,  0.499999990020984,  0.443411061601357 ]
    mass: 74.921600
  - symbol: As # 14
    coordinates: [  0.499999995340206,  0.499999981601190,  0.943411086449174 ]
    mass: 74.921600
  - symbol: As # 15
    coordinates: [  0.545750963833901,  0.420410327194851,  0.449678244102160 ]
    mass: 74.921600
  - symbol: As # 16
    coordinates: [  0.591802176290223,  0.499826670975780,  0.949678265468072 ]
    mass: 74.921600
  - symbol: As # 17
    coordinates: [  0.401700163765640,  0.556753467272929,  0.104148768633162 ]
    mass: 74.921600
  - symbol: As # 18
    coordinates: [  0.401700160618509,  0.443246536556037,  0.604148776909825 ]
    mass: 74.921600
  - symbol: As # 19
    coordinates: [  0.454101230852464,  0.473500329208824,  0.110065196140611 ]
    mass: 74.921600
  - symbol: As # 20
    coordinates: [  0.499999990173718,  0.447000687802993,  0.610065194623650 ]
    mass: 74.921600
  - symbol: As # 21
    coordinates: [  0.500000013736148,  0.386493086956294,  0.104148801573025 ]
    mass: 74.921600
  - symbol: As # 22
    coordinates: [  0.598299834775949,  0.443246549420641,  0.604148781397896 ]
    mass: 74.921600
  - symbol: As # 23
    coordinates: [  0.361863577703203,  0.579753087063295,  0.446469687314767 ]
    mass: 74.921600
  - symbol: As # 24
    coordinates: [  0.361863574030827,  0.420246915065492,  0.946469655505173 ]
    mass: 74.921600
  - symbol: As # 25
    coordinates: [  0.408197825676880,  0.500173329143773,  0.449678245260380 ]
    mass: 74.921600
  - symbol: As # 26
    coordinates: [  0.453948805201422,  0.420583675582290,  0.949678251654172 ]
    mass: 74.921600
  - symbol: As # 27
    coordinates: [  0.454249037284049,  0.420410326277387,  0.449678244854791 ]
    mass: 74.921600
  - symbol: As # 28
    coordinates: [  0.546051193470586,  0.420583647865735,  0.949678259799807 ]
    mass: 74.921600
  - symbol: As # 29
    coordinates: [  0.499999993515506,  0.340493808160161,  0.446469672124840 ]
    mass: 74.921600
  - symbol: As # 30
    coordinates: [  0.638136420777637,  0.420246914071587,  0.946469653172568 ]
    mass: 74.921600
  - symbol: As # 31
    coordinates: [  0.401826197615321,  0.609001424667738,  0.270502716664327 ]
    mass: 74.921600
  - symbol: As # 32
    coordinates: [  0.356515127758892,  0.469479722122098,  0.770502738676061 ]
    mass: 74.921600
  - symbol: As # 33
    coordinates: [  0.451817158136866,  0.527818376328472,  0.276053076083809 ]
    mass: 74.921600
  - symbol: As # 34
    coordinates: [  0.451817161048362,  0.472181660482735,  0.776053086814277 ]
    mass: 74.921600
  - symbol: As # 35
    coordinates: [  0.499999996323181,  0.444363260946666,  0.276053075947962 ]
    mass: 74.921600
  - symbol: As # 36
    coordinates: [  0.548182841099096,  0.472181656919356,  0.776053088974502 ]
    mass: 74.921600
  - symbol: As # 37
    coordinates: [  0.545311113720330,  0.360478280956267,  0.270502742678932 ]
    mass: 74.921600
  - symbol: As # 38
    coordinates: [  0.643484870950879,  0.469479721415952,  0.770502727014806 ]
    mass: 74.921600
  - symbol: As # 39
    coordinates: [  0.551524037292700,  0.633980461958470,  0.102924791265317 ]
    mass: 74.921600
  - symbol: As # 40
    coordinates: [  0.409731528652664,  0.611611374746557,  0.602924810748185 ]
    mass: 74.921600
  - symbol: As # 41
    coordinates: [  0.598299836066259,  0.556753444578028,  0.104148782487758 ]
    mass: 74.921600
  - symbol: As # 42
    coordinates: [  0.499999990537768,  0.613506889626183,  0.604148783676482 ]
    mass: 74.921600
  - symbol: As # 43
    coordinates: [  0.641792497634338,  0.477630907929465,  0.102924796296954 ]
    mass: 74.921600
  - symbol: As # 44
    coordinates: [  0.590268471415193,  0.611611354638321,  0.602924813108797 ]
    mass: 74.921600
  - symbol: As # 45
    coordinates: [  0.500000012379279,  0.606514803314599,  0.273331175025801 ]
    mass: 74.921600
  - symbol: As # 46
    coordinates: [  0.407755467887782,  0.553257411689482,  0.773331188340074 ]
    mass: 74.921600
  - symbol: As # 47
    coordinates: [  0.548182840115238,  0.527818376942046,  0.276053076600635 ]
    mass: 74.921600
  - symbol: As # 48
    coordinates: [  0.500000013982613,  0.555636739229686,  0.776053085384667 ]
    mass: 74.921600
  - symbol: As # 49
    coordinates: [  0.592244531420447,  0.446742589821366,  0.273331169488251 ]
    mass: 74.921600
  - symbol: As # 50
    coordinates: [  0.592244532340196,  0.553257410748790,  0.773331185238598 ]
    mass: 74.921600
  - symbol: As # 51
    coordinates: [  0.448475963825431,  0.633980462907464,  0.102924785136519 ]
    mass: 74.921600
  - symbol: As # 52
    coordinates: [  0.358207471745405,  0.522369085549264,  0.602924767964141 ]
    mass: 74.921600
  - symbol: As # 53
    coordinates: [  0.500000009133070,  0.552999312833983,  0.110065208900826 ]
    mass: 74.921600
  - symbol: As # 54
    coordinates: [  0.454101232817082,  0.526499669619114,  0.610065191238121 ]
    mass: 74.921600
  - symbol: As # 55
    coordinates: [  0.545898768933886,  0.473500329544295,  0.110065195009534 ]
    mass: 74.921600
  - symbol: As # 56
    coordinates: [  0.545898768723816,  0.526499668175471,  0.610065193458309 ]
    mass: 74.921600
  - symbol: As # 57
    coordinates: [  0.590268471181068,  0.388388643565568,  0.102924803025695 ]
    mass: 74.921600
  - symbol: As # 58
    coordinates: [  0.641792531826278,  0.522369087753898,  0.602924772466450 ]
    mass: 74.921600
  - symbol: As # 59
    coordinates: [  0.546051195670262,  0.579416326758444,  0.449678241411645 ]
    mass: 74.921600
  - symbol: As # 60
    coordinates: [  0.454249037726206,  0.579589675764520,  0.949678256920189 ]
    mass: 74.921600
  - symbol: As # 61
    coordinates: [  0.591802174467658,  0.500173329286718,  0.449678243202041 ]
    mass: 74.921600
  - symbol: As # 62
    coordinates: [  0.545750964359639,  0.579589687119314,  0.949678253499736 ]
    mass: 74.921600
  - symbol: As # 63
    coordinates: [  0.638136418286030,  0.579753086428054,  0.446469677246077 ]
    mass: 74.921600
  - symbol: As # 64
    coordinates: [  0.499999984987444,  0.659506192035528,  0.946469658239576 ]
    mass: 74.921600
  - symbol: As # 65
    coordinates: [  0.598173802473004,  0.609001422362652,  0.270502719333230 ]
    mass: 74.921600
  - symbol: As # 66
    coordinates: [  0.454688904002923,  0.639521708479987,  0.770502713503864 ]
    mass: 74.921600
  - symbol: As # 67
    coordinates: [  0.643484871105576,  0.530520275364410,  0.270502732207353 ]
    mass: 74.921600
  - symbol: As # 68
    coordinates: [  0.545311086200858,  0.639521719268913,  0.770502725725425 ]
    mass: 74.921600
  - symbol: In # 69
    coordinates: [  0.372857972409566,  0.483439908596924,  0.220126082360336 ]
    mass: 114.818000
  - symbol: In # 70
    coordinates: [  0.450770452351805,  0.381611722849769,  0.720126114164346 ]
    mass: 114.818000
  - symbol: In # 71
    coordinates: [  0.422087497815332,  0.398171825354816,  0.220126077852389 ]
    mass: 114.818000
  - symbol: In # 72
    coordinates: [  0.549229545860587,  0.381611723511742,  0.720126109129246 ]
    mass: 114.818000
  - symbol: In # 73
    coordinates: [  0.372299362961067,  0.532233125330738,  0.387185480861779 ]
    mass: 114.818000
  - symbol: In # 74
    coordinates: [  0.408234967522277,  0.405524574581391,  0.887185451692800 ]
    mass: 114.818000
  - symbol: In # 75
    coordinates: [  0.419671438987670,  0.453622267460892,  0.391542501477020 ]
    mass: 114.818000
  - symbol: In # 76
    coordinates: [  0.499999982574948,  0.407244585140095,  0.891542480877906 ]
    mass: 114.818000
  - symbol: In # 77
    coordinates: [  0.464064376063851,  0.373291448010462,  0.387185472160552 ]
    mass: 114.818000
  - symbol: In # 78
    coordinates: [  0.591765033684916,  0.405524573273063,  0.887185452125076 ]
    mass: 114.818000
  - symbol: In # 79
    coordinates: [  0.380226470535620,  0.430848750686807,  0.062258558830308 ]
    mass: 114.818000
  - symbol: In # 80
    coordinates: [  0.380226470213355,  0.569151249821028,  0.562258571594544 ]
    mass: 114.818000
  - symbol: In # 81
    coordinates: [  0.456527189199023,  0.418637300666746,  0.078404164866656 ]
    mass: 114.818000
  - symbol: In # 82
    coordinates: [  0.407801447932077,  0.496967238764370,  0.578404164621450 ]
    mass: 114.818000
  - symbol: In # 83
    coordinates: [  0.543472817976605,  0.418637302033073,  0.078404164164343 ]
    mass: 114.818000
  - symbol: In # 84
    coordinates: [  0.451274280215797,  0.421670082750302,  0.578404200354362 ]
    mass: 114.818000
  - symbol: In # 85
    coordinates: [  0.619773528983773,  0.430848747981083,  0.062258522606947 ]
    mass: 114.818000
  - symbol: In # 86
    coordinates: [  0.500000012197033,  0.361697440697472,  0.562258555483499 ]
    mass: 114.818000
  - symbol: In # 87
    coordinates: [  0.408234965818774,  0.594475405870409,  0.387185437978019 ]
    mass: 114.818000
  - symbol: In # 88
    coordinates: [  0.372299361903299,  0.467766870714796,  0.887185458538075 ]
    mass: 114.818000
  - symbol: In # 89
    coordinates: [  0.454066360739321,  0.526519783022760,  0.401754423755641 ]
    mass: 114.818000
  - symbol: In # 90
    coordinates: [  0.454066363649869,  0.473480216802125,  0.901754445541709 ]
    mass: 114.818000
  - symbol: In # 91
    coordinates: [  0.500000013955571,  0.446960417885401,  0.401754424405912 ]
    mass: 114.818000
  - symbol: In # 92
    coordinates: [  0.545933639727906,  0.473480219014181,  0.901754450929803 ]
    mass: 114.818000
  - symbol: In # 93
    coordinates: [  0.535935623196860,  0.373291446884164,  0.387185461823724 ]
    mass: 114.818000
  - symbol: In # 94
    coordinates: [  0.627700636201130,  0.467766872328720,  0.887185461951422 ]
    mass: 114.818000
  - symbol: In # 95
    coordinates: [  0.404738504229020,  0.554999256679841,  0.229185052914880 ]
    mass: 114.818000
  - symbol: In # 96
    coordinates: [  0.404738501942828,  0.445000745676007,  0.729185057036222 ]
    mass: 114.818000
  - symbol: In # 97
    coordinates: [  0.455947293593822,  0.474566173959001,  0.235657249306646 ]
    mass: 114.818000
  - symbol: In # 98
    coordinates: [  0.500000004287508,  0.449132355260511,  0.735657240290845 ]
    mass: 114.818000
  - symbol: In # 99
    coordinates: [  0.499999988505219,  0.390001502928734,  0.229185070959126 ]
    mass: 114.818000
  - symbol: In # 100
    coordinates: [  0.595261497843385,  0.445000744004576,  0.729185063791458 ]
    mass: 114.818000
  - symbol: In # 101
    coordinates: [  0.407801446561362,  0.503032768745809,  0.078404174324072 ]
    mass: 114.818000
  - symbol: In # 102
    coordinates: [  0.456527150372798,  0.581362697561036,  0.578404153727185 ]
    mass: 114.818000
  - symbol: In # 103
    coordinates: [  0.499999992886374,  0.499999976380497,  0.069964899701952 ]
    mass: 114.818000
  - symbol: In # 104
    coordinates: [  0.499999992317246,  0.500000020861330,  0.569964867548581 ]
    mass: 114.818000
  - symbol: In # 105
    coordinates: [  0.592198554505411,  0.503032761321602,  0.078404161064166 ]
    mass: 114.818000
  - symbol: In # 106
    coordinates: [  0.548725718942342,  0.421670080754891,  0.578404199485546 ]
    mass: 114.818000
  - symbol: In # 107
    coordinates: [  0.450770454649387,  0.618388278504948,  0.220126097109307 ]
    mass: 114.818000
  - symbol: In # 108
    coordinates: [  0.372857970512264,  0.516560116072737,  0.720126062373237 ]
    mass: 114.818000
  - symbol: In # 109
    coordinates: [  0.499999995625886,  0.550867661508430,  0.235657226717435 ]
    mass: 114.818000
  - symbol: In # 110
    coordinates: [  0.455947296087870,  0.525433827028913,  0.735657232139658 ]
    mass: 114.818000
  - symbol: In # 111
    coordinates: [  0.544052704110329,  0.474566173875253,  0.235657248791499 ]
    mass: 114.818000
  - symbol: In # 112
    coordinates: [  0.544052702697090,  0.525433823611941,  0.735657237297814 ]
    mass: 114.818000
  - symbol: In # 113
    coordinates: [  0.577912501944258,  0.398171825781727,  0.220126098820523 ]
    mass: 114.818000
  - symbol: In # 114
    coordinates: [  0.627142030067035,  0.516560110246926,  0.720126068971544 ]
    mass: 114.818000
  - symbol: In # 115
    coordinates: [  0.451274282188045,  0.578329919664573,  0.078404152764467 ]
    mass: 114.818000
  - symbol: In # 116
    coordinates: [  0.543472847292561,  0.581362695631668,  0.578404191309793 ]
    mass: 114.818000
  - symbol: In # 117
    coordinates: [  0.548725720366146,  0.578329913045436,  0.078404160637462 ]
    mass: 114.818000
  - symbol: In # 118
    coordinates: [  0.592198550553010,  0.496967237007284,  0.578404156561988 ]
    mass: 114.818000
  - symbol: In # 119
    coordinates: [  0.500000000855154,  0.592755416067641,  0.391542493550360 ]
    mass: 114.818000
  - symbol: In # 120
    coordinates: [  0.419671436790766,  0.546377733918341,  0.891542484158345 ]
    mass: 114.818000
  - symbol: In # 121
    coordinates: [  0.545933637759426,  0.526519781818652,  0.401754425877824 ]
    mass: 114.818000
  - symbol: In # 122
    coordinates: [  0.499999992016472,  0.553039582467942,  0.901754439509405 ]
    mass: 114.818000
  - symbol: In # 123
    coordinates: [  0.580328562549436,  0.453622272325211,  0.391542486960315 ]
    mass: 114.818000
  - symbol: In # 124
    coordinates: [  0.580328564189487,  0.546377708528820,  0.891542483844412 ]
    mass: 114.818000
  - symbol: In # 125
    coordinates: [  0.549229547104046,  0.618388277369619,  0.220126094223486 ]
    mass: 114.818000
  - symbol: In # 126
    coordinates: [  0.422087500489845,  0.601828176071940,  0.720126092058443 ]
    mass: 114.818000
  - symbol: In # 127
    coordinates: [  0.595261497633372,  0.554999258431062,  0.229185052787027 ]
    mass: 114.818000
  - symbol: In # 128
    coordinates: [  0.499999982325838,  0.609998497904149,  0.729185053759627 ]
    mass: 114.818000
  - symbol: In # 129
    coordinates: [  0.627142028510042,  0.483439887945582,  0.220126077781146 ]
    mass: 114.818000
  - symbol: In # 130
    coordinates: [  0.577912501729882,  0.601828171375248,  0.720126112307496 ]
    mass: 114.818000
  - symbol: In # 131
    coordinates: [  0.591765032809399,  0.594475426152971,  0.387185435920065 ]
    mass: 114.818000
  - symbol: In # 132
    coordinates: [  0.464064377190138,  0.626708548653349,  0.887185459189005 ]
    mass: 114.818000
  - symbol: In # 133
    coordinates: [  0.627700638026170,  0.532233125926852,  0.387185472272840 ]
    mass: 114.818000
  - symbol: In # 134
    coordinates: [  0.535935625487847,  0.626708552835938,  0.887185453824986 ]
    mass: 114.818000
  - symbol: In # 135
    coordinates: [  0.500000011858696,  0.638302555804276,  0.062258530757409 ]
    mass: 114.818000
  - symbol: In # 136
    coordinates: [  0.619773528667497,  0.569151258505197,  0.562258562371146 ]
    mass: 114.818000
  reciprocal_lattice: # without 2pi
  - [     0.021259633960990,     0.000000000000000,     0.000000000000000 ] # a*
  - [     0.000000000000000,     0.021259633960990,     0.000000000000000 ] # b*
  - [     0.000000000000000,     0.000000000000000,     0.047386938711141 ] # c*

unit_cell:
  lattice:
  - [    47.037498474099998,     0.000000000000000,     0.000000000000000 ] # a
  - [     0.000000000000000,    47.037498474099998,     0.000000000000000 ] # b
  - [     0.000000000000000,     0.000000000000000,    21.102861404399999 ] # c
  points:
  - symbol: As # 1
    coordinates: [  0.356515129995275,  0.530520277437623,  0.270502748223393 ]
    mass: 74.921600
    reduced_to: 1
  - symbol: As # 2
    coordinates: [  0.401826193567968,  0.390998575349599,  0.770502731333552 ]
    mass: 74.921600
    reduced_to: 2
  - symbol: As # 3
    coordinates: [  0.407755468429872,  0.446742590332082,  0.273331179536509 ]
    mass: 74.921600
    reduced_to: 3
  - symbol: As # 4
    coordinates: [  0.500000017786735,  0.393485202448282,  0.773331146210068 ]
    mass: 74.921600
    reduced_to: 4
  - symbol: As # 5
    coordinates: [  0.454688913535322,  0.360478280563949,  0.270502741916924 ]
    mass: 74.921600
    reduced_to: 5
  - symbol: As # 6
    coordinates: [  0.598173807911805,  0.390998576575185,  0.770502729476331 ]
    mass: 74.921600
    reduced_to: 6
  - symbol: As # 7
    coordinates: [  0.358207501860851,  0.477630909812363,  0.102924801001207 ]
    mass: 74.921600
    reduced_to: 7
  - symbol: As # 8
    coordinates: [  0.448475961523505,  0.366019533287073,  0.602924824533004 ]
    mass: 74.921600
    reduced_to: 8
  - symbol: As # 9
    coordinates: [  0.409731529587856,  0.388388643506436,  0.102924786502568 ]
    mass: 74.921600
    reduced_to: 9
  - symbol: As # 10
    coordinates: [  0.551524042098419,  0.366019534940308,  0.602924805781518 ]
    mass: 74.921600
    reduced_to: 10
  - symbol: As # 11
    coordinates: [  0.453948802344033,  0.579416327546847,  0.449678242790792 ]
    mass: 74.921600
    reduced_to: 11
  - symbol: As # 12
    coordinates: [  0.408197821254410,  0.499826669233696,  0.949678257836096 ]
    mass: 74.921600
    reduced_to: 12
  - symbol: As # 13
    coordinates: [  0.499999999303255,  0.499999990020984,  0.443411061601357 ]
    mass: 74.921600
    reduced_to: 13
  - symbol: As # 14
    coordinates: [  0.499999995340206,  0.499999981601190,  0.943411086449174 ]
    mass: 74.921600
    reduced_to: 14
  - symbol: As # 15
    coordinates: [  0.545750963833901,  0.420410327194851,  0.449678244102160 ]
    mass: 74.921600
    reduced_to: 15
  - symbol: As # 16
    coordinates: [  0.591802176290223,  0.499826670975780,  0.949678265468072 ]
    mass: 74.921600
    reduced_to: 16
  - symbol: As # 17
    coordinates: [  0.401700163765640,  0.556753467272929,  0.104148768633162 ]
    mass: 74.921600
    reduced_to: 17
  - symbol: As # 18
    coordinates: [  0.401700160618509,  0.443246536556037,  0.604148776909825 ]
    mass: 74.921600
    reduced_to: 18
  - symbol: As # 19
    coordinates: [  0.454101230852464,  0.473500329208824,  0.110065196140611 ]
    mass: 74.921600
    reduced_to: 19
  - symbol: As # 20
    coordinates: [  0.499999990173718,  0.447000687802993,  0.610065194623650 ]
    mass: 74.921600
    reduced_to: 20
  - symbol: As # 21
    coordinates: [  0.500000013736148,  0.386493086956294,  0.104148801573025 ]
    mass: 74.921600
    reduced_to: 21
  - symbol: As # 22
    coordinates: [  0.598299834775949,  0.443246549420641,  0.604148781397896 ]
    mass: 74.921600
    reduced_to: 22
  - symbol: As # 23
    coordinates: [  0.361863577703203,  0.579753087063295,  0.446469687314767 ]
    mass: 74.921600
    reduced_to: 23
  - symbol: As # 24
    coordinates: [  0.361863574030827,  0.420246915065492,  0.946469655505173 ]
    mass: 74.921600
    reduced_to: 24
  - symbol: As # 25
    coordinates: [  0.408197825676880,  0.500173329143773,  0.449678245260380 ]
    mass: 74.921600
    reduced_to: 25
  - symbol: As # 26
    coordinates: [  0.453948805201422,  0.420583675582290,  0.949678251654172 ]
    mass: 74.921600
    reduced_to: 26
  - symbol: As # 27
    coordinates: [  0.454249037284049,  0.420410326277387,  0.449678244854791 ]
    mass: 74.921600
    reduced_to: 27
  - symbol: As # 28
    coordinates: [  0.546051193470586,  0.420583647865735,  0.949678259799807 ]
    mass: 74.921600
    reduced_to: 28
  - symbol: As # 29
    coordinates: [  0.499999993515506,  0.340493808160161,  0.446469672124840 ]
    mass: 74.921600
    reduced_to: 29
  - symbol: As # 30
    coordinates: [  0.638136420777637,  0.420246914071587,  0.946469653172568 ]
    mass: 74.921600
    reduced_to: 30
  - symbol: As # 31
    coordinates: [  0.401826197615321,  0.609001424667738,  0.270502716664327 ]
    mass: 74.921600
    reduced_to: 31
  - symbol: As # 32
    coordinates: [  0.356515127758892,  0.469479722122098,  0.770502738676061 ]
    mass: 74.921600
    reduced_to: 32
  - symbol: As # 33
    coordinates: [  0.451817158136866,  0.527818376328472,  0.276053076083809 ]
    mass: 74.921600
    reduced_to: 33
  - symbol: As # 34
    coordinates: [  0.451817161048362,  0.472181660482735,  0.776053086814277 ]
    mass: 74.921600
    reduced_to: 34
  - symbol: As # 35
    coordinates: [  0.499999996323181,  0.444363260946666,  0.276053075947962 ]
    mass: 74.921600
    reduced_to: 35
  - symbol: As # 36
    coordinates: [  0.548182841099096,  0.472181656919356,  0.776053088974502 ]
    mass: 74.921600
    reduced_to: 36
  - symbol: As # 37
    coordinates: [  0.545311113720330,  0.360478280956267,  0.270502742678932 ]
    mass: 74.921600
    reduced_to: 37
  - symbol: As # 38
    coordinates: [  0.643484870950879,  0.469479721415952,  0.770502727014806 ]
    mass: 74.921600
    reduced_to: 38
  - symbol: As # 39
    coordinates: [  0.551524037292700,  0.633980461958470,  0.102924791265317 ]
    mass: 74.921600
    reduced_to: 39
  - symbol: As # 40
    coordinates: [  0.409731528652664,  0.611611374746557,  0.602924810748185 ]
    mass: 74.921600
    reduced_to: 40
  - symbol: As # 41
    coordinates: [  0.598299836066259,  0.556753444578028,  0.104148782487758 ]
    mass: 74.921600
    reduced_to: 41
  - symbol: As # 42
    coordinates: [  0.499999990537768,  0.613506889626183,  0.604148783676482 ]
    mass: 74.921600
    reduced_to: 42
  - symbol: As # 43
    coordinates: [  0.641792497634338,  0.477630907929465,  0.102924796296954 ]
    mass: 74.921600
    reduced_to: 43
  - symbol: As # 44
    coordinates: [  0.590268471415193,  0.611611354638321,  0.602924813108797 ]
    mass: 74.921600
    reduced_to: 44
  - symbol: As # 45
    coordinates: [  0.500000012379279,  0.606514803314599,  0.273331175025801 ]
    mass: 74.921600
    reduced_to: 45
  - symbol: As # 46
    coordinates: [  0.407755467887782,  0.553257411689482,  0.773331188340074 ]
    mass: 74.921600
    reduced_to: 46
  - symbol: As # 47
    coordinates: [  0.548182840115238,  0.527818376942046,  0.276053076600635 ]
    mass: 74.921600
    reduced_to: 47
  - symbol: As # 48
    coordinates: [  0.500000013982613,  0.555636739229686,  0.776053085384667 ]
    mass: 74.921600
    reduced_to: 48
  - symbol: As # 49
    coordinates: [  0.592244531420447,  0.446742589821366,  0.273331169488251 ]
    mass: 74.921600
    reduced_to: 49
  - symbol: As # 50
    coordinates: [  0.592244532340196,  0.553257410748790,  0.773331185238598 ]
    mass: 74.921600
    reduced_to: 50
  - symbol: As # 51
    coordinates: [  0.448475963825431,  0.633980462907464,  0.102924785136519 ]
    mass: 74.921600
    reduced_to: 51
  - symbol: As # 52
    coordinates: [  0.358207471745405,  0.522369085549264,  0.602924767964141 ]
    mass: 74.921600
    reduced_to: 52
  - symbol: As # 53
    coordinates: [  0.500000009133070,  0.552999312833983,  0.110065208900826 ]
    mass: 74.921600
    reduced_to: 53
  - symbol: As # 54
    coordinates: [  0.454101232817082,  0.526499669619114,  0.610065191238121 ]
    mass: 74.921600
    reduced_to: 54
  - symbol: As # 55
    coordinates: [  0.545898768933886,  0.473500329544295,  0.110065195009534 ]
    mass: 74.921600
    reduced_to: 55
  - symbol: As # 56
    coordinates: [  0.545898768723816,  0.526499668175471,  0.610065193458309 ]
    mass: 74.921600
    reduced_to: 56
  - symbol: As # 57
    coordinates: [  0.590268471181068,  0.388388643565568,  0.102924803025695 ]
    mass: 74.921600
    reduced_to: 57
  - symbol: As # 58
    coordinates: [  0.641792531826278,  0.522369087753898,  0.602924772466450 ]
    mass: 74.921600
    reduced_to: 58
  - symbol: As # 59
    coordinates: [  0.546051195670262,  0.579416326758444,  0.449678241411645 ]
    mass: 74.921600
    reduced_to: 59
  - symbol: As # 60
    coordinates: [  0.454249037726206,  0.579589675764520,  0.949678256920189 ]
    mass: 74.921600
    reduced_to: 60
  - symbol: As # 61
    coordinates: [  0.591802174467658,  0.500173329286718,  0.449678243202041 ]
    mass: 74.921600
    reduced_to: 61
  - symbol: As # 62
    coordinates: [  0.545750964359639,  0.579589687119314,  0.949678253499736 ]
    mass: 74.921600
    reduced_to: 62
  - symbol: As # 63
    coordinates: [  0.638136418286030,  0.579753086428054,  0.446469677246077 ]
    mass: 74.921600
    reduced_to: 63
  - symbol: As # 64
    coordinates: [  0.499999984987444,  0.659506192035528,  0.946469658239576 ]
    mass: 74.921600
    reduced_to: 64
  - symbol: As # 65
    coordinates: [  0.598173802473004,  0.609001422362652,  0.270502719333230 ]
    mass: 74.921600
    reduced_to: 65
  - symbol: As # 66
    coordinates: [  0.454688904002923,  0.639521708479987,  0.770502713503864 ]
    mass: 74.921600
    reduced_to: 66
  - symbol: As # 67
    coordinates: [  0.643484871105576,  0.530520275364410,  0.270502732207353 ]
    mass: 74.921600
    reduced_to: 67
  - symbol: As # 68
    coordinates: [  0.545311086200858,  0.639521719268913,  0.770502725725425 ]
    mass: 74.921600
    reduced_to: 68
  - symbol: In # 69
    coordinates: [  0.372857972409566,  0.483439908596924,  0.220126082360336 ]
    mass: 114.818000
    reduced_to: 69
  - symbol: In # 70
    coordinates: [  0.450770452351805,  0.381611722849769,  0.720126114164346 ]
    mass: 114.818000
    reduced_to: 70
  - symbol: In # 71
    coordinates: [  0.422087497815332,  0.398171825354816,  0.220126077852389 ]
    mass: 114.818000
    reduced_to: 71
  - symbol: In # 72
    coordinates: [  0.549229545860587,  0.381611723511742,  0.720126109129246 ]
    mass: 114.818000
    reduced_to: 72
  - symbol: In # 73
    coordinates: [  0.372299362961067,  0.532233125330738,  0.387185480861779 ]
    mass: 114.818000
    reduced_to: 73
  - symbol: In # 74
    coordinates: [  0.408234967522277,  0.405524574581391,  0.887185451692800 ]
    mass: 114.818000
    reduced_to: 74
  - symbol: In # 75
    coordinates: [  0.419671438987670,  0.453622267460892,  0.391542501477020 ]
    mass: 114.818000
    reduced_to: 75
  - symbol: In # 76
    coordinates: [  0.499999982574948,  0.407244585140095,  0.891542480877906 ]
    mass: 114.818000
    reduced_to: 76
  - symbol: In # 77
    coordinates: [  0.464064376063851,  0.373291448010462,  0.387185472160552 ]
    mass: 114.818000
    reduced_to: 77
  - symbol: In # 78
    coordinates: [  0.591765033684916,  0.405524573273063,  0.887185452125076 ]
    mass: 114.818000
    reduced_to: 78
  - symbol: In # 79
    coordinates: [  0.380226470535620,  0.430848750686807,  0.062258558830308 ]
    mass: 114.818000
    reduced_to: 79
  - symbol: In # 80
    coordinates: [  0.380226470213355,  0.569151249821028,  0.562258571594544 ]
    mass: 114.818000
    reduced_to: 80
  - symbol: In # 81
    coordinates: [  0.456527189199023,  0.418637300666746,  0.078404164866656 ]
    mass: 114.818000
    reduced_to: 81
  - symbol: In # 82
    coordinates: [  0.407801447932077,  0.496967238764370,  0.578404164621450 ]
    mass: 114.818000
    reduced_to: 82
  - symbol: In # 83
    coordinates: [  0.543472817976605,  0.418637302033073,  0.078404164164343 ]
    mass: 114.818000
    reduced_to: 83
  - symbol: In # 84
    coordinates: [  0.451274280215797,  0.421670082750302,  0.578404200354362 ]
    mass: 114.818000
    reduced_to: 84
  - symbol: In # 85
    coordinates: [  0.619773528983773,  0.430848747981083,  0.062258522606947 ]
    mass: 114.818000
    reduced_to: 85
  - symbol: In # 86
    coordinates: [  0.500000012197033,  0.361697440697472,  0.562258555483499 ]
    mass: 114.818000
    reduced_to: 86
  - symbol: In # 87
    coordinates: [  0.408234965818774,  0.594475405870409,  0.387185437978019 ]
    mass: 114.818000
    reduced_to: 87
  - symbol: In # 88
    coordinates: [  0.372299361903299,  0.467766870714796,  0.887185458538075 ]
    mass: 114.818000