 105  105
1 1
    20.055334130114083     0.668013843768574    -0.000750767261781
     0.668013843768574    16.683617408416975     0.236474793382517
    -0.000750767261781     0.236474793382517    14.679925999484755
1 2
     0.264617270767805    -0.081477275284360    -0.096392165370807
    -0.082107010473238     0.242256912545626    -0.021062419596805
     0.072018641832814     0.017996449212735    -0.299690666284612
1 3
     0.000190695593612     0.000049583433239     0.002115826808178
     0.000079672262744     0.000129518623088     0.000504683883452
     0.000347107949844    -0.001411157935526     0.001579916151096
1 4
    -0.000520188349584    -0.001154236986587     0.000874974434085
    -0.001314444376075    -0.000905848351050     0.000734133615715
     0.002288959203462     0.001237969639144     0.001532495014565
1 5
    -0.000150413245917     0.001543139946215     0.002888440297668
     0.000001875335424     0.000614277146010     0.000341728814581
    -0.001827873038826     0.000061273357480     0.001827628161506
1 6
    -1.354388303392400    -0.085996100559436     1.114426467770220
     0.385223637200116     0.473728978309144    -0.293742992934902
     1.527520734232209     0.013244687200148    -0.769363675723876
1 7
     0.077128966829222    -0.031791349746983    -0.018132806308823
     0.019180918362223     0.028049594345825    -0.024849936162899
    -0.058398690423162     0.044623815624884     0.035364254980144
1 8
    -1.433751038394853    -0.136572378370085    -1.071923256925405
     0.445829603358739     0.441889499603188     0.321729508753521
    -1.487639276046921    -0.112707003949935    -0.652659161670886
1 9
     0.001282776825771    -0.000509456019469     0.000554381990286
    -0.000752788589621    -0.000851843309356    -0.001343436263515
    -0.000175291405397     0.003209258954167     0.001640300161313
1 10
     0.000129614303255    -0.000355519812167     0.000625711884734
    -0.000010905758625    -0.000746640093022    -0.000447721286971
    -0.000826762373739    -0.001088745605539     0.001526263324870
1 11
     0.000724699820665     0.000835227544728     0.000456037297429
     0.000450448436160     0.001057232961626    -0.000489115032887
     0.001596325194916     0.001215234764000     0.000275728982143
1 12
    -0.086121217200798    -0.146013275213992     0.433703084179054
    -0.179264569001847    -0.140307388869651     0.417699702073942
    -0.166913914736661    -0.029731736094537     0.122837845666660
1 13
     0.047516282936701     0.017687200663258    -0.001063172046179
     0.058035355202907     0.022744819009376    -0.014221400527952
    -0.006590623682061    -0.015898719140466     0.028337900406040
1 14
    -0.133181934410372    -0.185361626375101    -0.467695878241299
    -0.220235162781105    -0.156448582229157    -0.423311152592327
     0.116902166363730     0.006799947277071     0.118077674795736
1 15
    -0.025172798648631    -0.044587117817478     0.008446696545774
    -0.014736237901966     0.004647789938376    -0.008560911152183
    -0.013488167669081     0.009614243928408     0.077154709078938
1 16
     0.015838284326807    -0.026609755119165    -0.069850447346957
     0.002007712598682     0.023673302873236    -0.001686526604179
    -0.038590304898679     0.023225134543232     0.023512045059061
1 17
     0.001330718209163    -0.002376571369388     0.059714032419148
    -0.011473545130869     0.031702720371912    -0.014569986541221
     0.057838909216539    -0.024297605615642     0.041481338179958
1 18
    -0.006782109572481     0.028365268334597    -0.001889181370577
     0.001822510434577    -0.006953431074486     0.000596235124116
     0.000686755980729    -0.002065581976843     0.002854025438554
1 19
    -0.000623083823999    -0.001952902205441    -0.000081500050075
     0.001682365322041     0.001104971073107     0.000937789313596
     0.002265731814456    -0.002995655420109    -0.000338515653084
1 20
    -0.003667577302494     0.025545758339293     0.017535861245020
    -0.000739778401782    -0.007370230167889    -0.005820454881345
    -0.007683040697735    -0.002291024239942     0.008648466918032
1 21
    -0.005196756576356     0.019489260574296    -0.005190955667558
    -0.003048007268604    -0.000639801024010    -0.001013145829816
    -0.002165583571778     0.002362684130667    -0.014537765988788
1 22
    -0.006934503071083     0.019998694789104    -0.016602968309638
     0.003317937329025    -0.008098889118691     0.005195630443652
     0.006412702364947    -0.002314827668192     0.011917993105843
1 23
     0.000314812147357    -0.000442135922268     0.001056877699195
    -0.000738920917962     0.000001752659279    -0.001206523198694
     0.001015578072910     0.001418669641356     0.000192796782080
1 24
    -0.001079057493359    -0.000066583582403     0.001215568379842
    -0.000064970342672    -0.000868555775574    -0.000762606705882
    -0.000311530815112     0.000628377469290     0.000236805724612
1 25
     0.000135835824905     0.000655138417681     0.001422621090370
    -0.000030667196111     0.000467871150392     0.000164962691533
    -0.001398644097620    -0.000507127565675     0.000824474543274
1 26
    -0.013609512822944     0.019637963668286    -0.001835094672409
     0.000071421556935     0.016121455282876    -0.001621379785975
     0.010415354517749     0.001126626949585     0.002702918451266
1 27
    -0.002668833787425     0.008166740234677    -0.000031574587309
     0.008834976783461     0.002128159846998    -0.006420142581123
    -0.003432064718381     0.002292425810584     0.000341295263645
1 28
     0.007981229979083     0.010223183234556    -0.002963335630399
     0.006668706746180     0.002094772202920     0.001612325584651
     0.015910857678954    -0.002007223944994     0.003881253016044
1 29
    -0.000221311308154     0.001128501504949     0.000218670773959
    -0.000061935113567     0.000227749269156    -0.002289718109408
     0.001078792978929     0.000763416230738    -0.000606086636884
1 30
    -0.001069037024849     0.000670841120364     0.001033593198242
    -0.000602730740904    -0.001263065434135    -0.004855775757300
    -0.001300116709849     0.005023568773109    -0.000780608191787
1 31
    -0.000646277491025     0.001471045313105    -0.001493415669872
     0.000804735106030     0.000076808260756     0.001723096418388
     0.000737139314715    -0.003035632010316    -0.000123281557141
1 32
    -0.007943891885803     0.001589195458024     0.002816558477590
     0.000253285161525     0.000561418005165    -0.003350832311171
     0.002119711990479     0.000864457181793    -0.002745320261867
1 33
    -0.002407244732036    -0.000118093157818    -0.001652562206330
    -0.000785367469438    -0.000042445982687    -0.002030834527569
    -0.000699503955190     0.001143510434178    -0.001596366371528
1 34
    -0.011288981687084     0.004603088349097    -0.006780377153561
     0.001873883462303    -0.000285989316894     0.000378734320139
    -0.003253784173430    -0.000884236089853    -0.001217071317259
1 35
    -0.135108280786649    -0.034468285550940     0.002216459020436
    -0.062469463533459    -0.020602193648390     0.003710970824536
    -0.004551654796108    -0.000859784258196    -0.025684085087740
1 36
    -0.008562884956170    -0.013430635973285    -0.006531927330562
    -0.018956090112928    -0.013637389116997     0.003822939991497
     0.017499735702744    -0.013497968810841     0.004965787336631
1 37
     0.003259713584951    -0.013112294139493     0.006081862240225
    -0.005076229038171    -0.009643651907471    -0.005255697094624
    -0.033606564559802     0.009312776020565     0.010815774834525
1 38
     0.000029487772016    -0.000487739113754     0.002431509702965
     0.000150516684992     0.001115664910228     0.002545333150707
     0.000006502772198    -0.000304258738779     0.002198493613222
1 39
    -0.000671639594311    -0.002222242395529     0.003073482328775
    -0.001329175261071    -0.001604126984863     0.006082173895304
    -0.000304647874601    -0.004433840696023     0.001461194138517
1 40
    -0.000355114264044     0.001488741390047     0.002087643740188
    -0.000068484958972    -0.000543883394615    -0.001840288425823
    -0.000372187571255     0.003747512151151     0.001497409061945
1 41
     0.000319925140919    -0.003228096337635     0.001901557342080
    -0.001750236095363    -0.004172019730759     0.003488366390888
    -0.000450324519444    -0.003717326812733     0.001841976675063
1 42
    -0.004123145210864    -0.002537564212505     0.002247675646834
    -0.002760266930155    -0.002919668073924     0.002462140400872
     0.000049026642088     0.000534381364642     0.002063290341008
1 43
    -0.000354190395954    -0.003372613746700     0.000439357114973
    -0.002044928292205    -0.005346812839861    -0.000655831507491
     0.000443223787508     0.005033698710641     0.001710422976854
1 44
     0.006731751884036    -0.020741434450078     0.001834010355049
     0.006039732383046    -0.019464062126671     0.001832446278178
     0.000480637144727    -0.002262980265381     0.004208439582753
1 45
    -0.000936672351561     0.004002218813231    -0.000532871292903
     0.001029333292999     0.000707446369529    -0.001569700368255
     0.002432649569446     0.000679199069757    -0.000514394015925
1 46
     0.298473468693990     0.238461208971854    -0.023874814774709
     0.333207570169269    -2.400042904922388     0.029319137436619
    -0.052305657904285    -0.111633074465559     0.357592883525933
1 47
     0.188832011021929     0.043094905183347    -0.004842931037767
    -0.134761300918440    -0.136431912034697     0.228864097188520
     0.137154092547477     0.090497813317926    -0.181318356665797
1 48
     0.215110835664250     0.093135231188000     0.033347181445340
    -0.122105870598521    -0.171192125120747    -0.214396245044708
    -0.230393904623936    -0.204222341296007    -0.245674235206718
1 49
     0.001089272317739    -0.000229198314979     0.001644462597929
    -0.000530272970884     0.000323176196975     0.000967452490949
    -0.000446661492270     0.000618885615090     0.002419506262272
1 50
    -0.000720880345158    -0.001220876228976     0.001857437613440
    -0.000795912466891    -0.002193084037902     0.002681430696326
    -0.001644695429150    -0.000335576939454     0.000975446859450
1 51
    -0.000010161602750     0.000111718679840     0.002094564926835
     0.000305361296053     0.000662078149442    -0.000853670695745
     0.000234676597229     0.000751950253097    -0.000788810828048
1 52
    -1.001973638938912    -0.483934339248720    -1.265794246653585
    -1.091987444203227    -0.021223692627183    -0.879928608309411
    -1.121274724335428    -0.311491704610414    -0.720690175994405
1 53
     0.059711473270927     0.011505047547410     0.015587610837455
     0.023888285824362     0.044714461059718    -0.028509122254899
     0.050255428223302     0.041108474524244    -0.031667386802346
1 54
    -1.078581299771411    -0.538019796469217     1.276252774062191
    -1.079872694384171     0.074410977934287     0.897147901150449
     1.001336443084707     0.333874441674943    -0.684740567775405
1 55
     0.000367107449773    -0.000869932124237     0.002118827415569
    -0.000283317782697    -0.000150710887605     0.002574591804917
     0.000620865153727    -0.001164917407168     0.002222866460129
1 56
    -0.000814237771283     0.002270764671914     0.003019598920443
     0.002589682499378     0.000761238213123    -0.001516366933578
    -0.000347366345863     0.003556982243676     0.002644587522190
1 57
     0.000325847492081    -0.000055810595641     0.003291125739998
     0.000645271764538    -0.000565284277005     0.000105798189915
    -0.000520836714952     0.000325028385096     0.002133374099590
1 58
     0.025041497770564     0.024161995570113    -0.025454836534513
    -0.006449593003825    -0.028001547595148    -0.008345797994641
    -0.021762343370299    -0.003490519757601     0.066607840917812
1 59
     0.043116587577734     0.048566196005962     0.057840289991339
    -0.008888373238168     0.003910932202385     0.013512385575685
     0.031566158486487     0.070424232285898     0.031887078748824
1 60
     0.025985145190623    -0.011453384348422    -0.027626648752145
    -0.006004303334017     0.000831114950815    -0.018178269314026
    -0.038067211469413    -0.049133094398754     0.044708248064579
1 61
     0.000535034038116     0.000102104661345     0.001221275702673
     0.000045839989217     0.000163417549686     0.000258535615404
    -0.001428649772272    -0.001070913940455     0.000951634696024
1 62
    -0.000461000388515    -0.002597512423068     0.001058898644723
    -0.001813418272161    -0.000628898695497     0.000517993502438
     0.001250710687223     0.000488087283559     0.000707475660701
1 63
     0.000325942040346     0.001297924867749     0.001511122751150
     0.001190618335439    -0.000221396101174     0.000057948876342
     0.000848663695885    -0.000862752255814     0.000990865622210
1 64
    -0.012155576010735    -0.036976406902389    -0.001438139960313
    -0.002829837654603    -0.013220861203846     0.004044845650219
    -0.009021598360170    -0.021780931743654     0.005737924172560
1 65
    -0.001657589122631    -0.025414305590165     0.006971611426973
     0.000428728850976    -0.005376756103206     0.008163363695840
    -0.002214769519340    -0.001591887332010    -0.015595909804766
1 66
    -0.010270298200177    -0.025736183613278     0.003551232046398
    -0.004545347730479    -0.010970151378388    -0.003012569351381
     0.005737699224664     0.015715518023623     0.012180387536295
1 67
    -0.137396882645356    -0.010527482074224    -0.034227518328452
     0.176065444383434     0.028201735726328     0.028467114908240
    -0.193863087565090    -0.067921625427033     0.061053235913143
1 68
    -0.021380673115758    -0.045212823492876    -0.012510995055790
     0.003972217535779     0.041920216586403    -0.008901456802236
     0.011864259217871     0.019001357372651    -0.004986393725470
1 69
    -0.225746186004687     0.059057231516403     0.004956234750148
     0.188941260420959     0.022747100668752    -0.020853409525033
     0.213090593702707     0.081580521846051     0.038370121985852
1 70
     0.066313661848508     0.027440169220193    -0.000099175094319
    -0.015526351346767    -0.008984301953874    -0.001900442458137
    -0.001057901655374    -0.002069518828625    -0.009508861178872
1 71
    -0.007570164669635    -0.009047932473100     0.005638557239523
     0.001750730991754    -0.001554032191122    -0.004689248321417
     0.011676790830158     0.001986315270549     0.004807900902822
1 72
     0.002654966865201    -0.008136212500772    -0.004619763140921
     0.003198063955237    -0.002799580849400     0.000452484906886
     0.000432338589179    -0.009168390314591     0.006295204005235
1 73
    -0.000042264683438    -0.002218164475587     0.002200561144780
    -0.000037501740158     0.001006230601224     0.004045267288545
    -0.000173748638967    -0.000854227386019    -0.002253585840249
1 74
     0.002346839231490     0.003416291344311    -0.001549399501952
     0.000754308533477     0.005135215935799    -0.003312190127703
    -0.000521236069379     0.004065855655211     0.002150536696290
1 75
     0.000534626904768     0.000728058216324     0.002315580296936
    -0.000130617827416     0.002494100339980    -0.000603718383896
    -0.002015499683069     0.000612980706811    -0.000876923836450
1 76
     0.000503811372113    -0.002229585526122     0.000856746064941
    -0.000269514746556     0.002384135956144    -0.000913309126877
    -0.000133227275274     0.000156847974819    -0.002668442918201
1 77
     0.000432105804995    -0.002584046198473    -0.002224481391752
    -0.000326075277086     0.003599432497261    -0.000999110083049
    -0.002408665111154    -0.000859936034340    -0.001617177928745
1 78
     0.000951979870364    -0.001422294893365     0.004069756771584
    -0.000319622733424     0.001081212029467    -0.001042636475123
    -0.000362996058005    -0.004024656409103    -0.002221989185744
1 79
     0.061432926462132     0.052924142999715     0.023238815102395
     0.025255360547808     0.018599588886000    -0.014425888168876
    -0.009975086765428     0.016194950272542    -0.002022108460687
1 80
    -0.010622718671350     0.001504285676315     0.002392769420609
    -0.009184162728317     0.000173965993560     0.003268087304111
    -0.011010830900280    -0.014381477788639    -0.004160500615439
1 81
     0.053649417314190     0.052135376364186    -0.014880185623395
     0.019029713395243     0.020248701819757     0.019338288489442
     0.027244073089684    -0.011261192885560    -0.011784878171136
1 82
    -0.228711394149304    -0.019602100153485     0.098730020625173
     0.168248379584017    -0.044737968694728    -0.043551992245730
     0.358049363366342     0.097951662484744    -0.141073894340298
1 83
    -0.038396676966875    -0.001095331250864     0.000194724105570
    -0.009724689379285     0.004264324342663     0.003185508343674
     0.001041056437236     0.002062602163766    -0.000547178885850
1 84
    -0.191603610481797     0.016932125828611    -0.122181178144983
     0.133919192598887    -0.026344450379461     0.010363967954037
    -0.310504874989784    -0.106047400814967    -0.208802582030386
1 85
    -0.795642097629118     0.036265023874871    -0.020979639034351
    -0.038624421083185    -0.010827790892240     0.014145066605356
    -0.015109746928714    -0.034399859056893     0.391091938925454
1 86
    -0.189727367954238     0.012668402499189    -0.131480953581209
    -0.166713945339162    -0.034961373020623    -0.119188157728041
    -0.113566473012837    -0.033555216631655    -0.054903185589131
1 87
    -0.196198670459796     0.026032516008658     0.121785503015885
    -0.165579328254373    -0.001157385962725     0.148355928529380
     0.089105599403023     0.006173072716901    -0.072759237042072
1 88
    -3.550054469071457     2.907308823016509    -3.211026802632004
     3.012616214618918    -4.208076350848665     3.820221024609231
    -3.475040477683338     4.134762526092411    -5.494539057935866
1 89
    -0.059496795718990    -0.148896058847164    -0.053278625286251
    -0.138345891590074    -0.090088253129056    -0.005224629268501
     0.007394264170384    -0.013968142208179     0.116235682338134
1 90
    -3.922736681737404     3.151956611028812     3.413126008938109
     3.241452993254201    -4.711018700053050    -4.049325136139283
     3.569943361837523    -4.124157596197583    -5.297582419808386
1 91
    -6.633127377998070    -5.176587821760236     0.009311657607978
    -5.246917201471144    -5.697851719877431     0.075914864476450
     0.107904197360048     0.076546335190898    -1.235430675364551
1 92
    -0.053072624681192    -0.113100655949093     0.313707022490874
    -0.042841744060149    -0.109463607907742     0.109687057397099
     0.254652763118424     0.076125942789187    -0.069654956095890
1 93
     0.079726644957151    -0.144828491109524    -0.373649401899833
    -0.036036446616132    -0.136780511200736    -0.167981783899897
    -0.279952296251375    -0.114772481712476    -0.058935193928879
1 94
    -0.000071396356774    -0.000921386443372     0.000030943515307
    -0.000330816567799     0.000729756316262     0.000698450597443
     0.000109506219830    -0.000475015340054    -0.001813911874962
1 95
     0.002630027818436     0.003789023368133     0.004580212200758
     0.003412840488123     0.003166831921771    -0.002018307545860
     0.000963777252312     0.001579991563997    -0.001566368382984
1 96
    -0.000172225183513    -0.000602354714837     0.003013008226619
     0.001119949636920    -0.000027881084943    -0.000657803713581
     0.001291419354819    -0.000985037298904    -0.001149196250633
1 97
    -0.000238099123508     0.000820951309803     0.002033675899744
    -0.000541746633842     0.001086762048186     0.000839517730493
     0.000503440129584    -0.001963834597699    -0.000783985082094
1 98
    -0.005073697953971    -0.002026437711795     0.001706777964352
    -0.002242689864515    -0.001842130676885     0.005939482874901
     0.001810212966504     0.000810353573107    -0.001553251251702
1 99
    -0.000624142403864     0.001406351741202     0.002752358062743
     0.000664728062775     0.000298110353543    -0.002168627206252
    -0.000135000120122     0.000135232480368    -0.000429757347455
1 100
     0.003061408104595    -0.015260581689373    -0.004331677402880
     0.000745310632891     0.004430334590833    -0.001282961639943
    -0.002822232851549     0.005050625281404    -0.003767727453032
1 101
     0.004275858047579    -0.001508234279383     0.002173164989672
    -0.001079958327965     0.004044439006246    -0.001628488187997
     0.004117140695591    -0.001654163581642    -0.001206986264977
1 102
     0.000786507708391    -0.008907330618552     0.002457800735754
     0.002154580088958     0.004313793959275    -0.001658967389158
     0.001298390554047     0.000981247286398    -0.003058468020284
1 103
    -0.004177847942136     0.013723505226974     0.000230174373266
    -0.011296414741333    -0.005610690035698     0.000538411333132
    -0.002292751293068     0.002495284201589    -0.002853505716413
1 104
     0.003580390764995     0.006348745458614     0.000280029720237
    -0.000935001542907     0.007208232283414     0.003171968730523
     0.001367616982405    -0.003417356175882    -0.002537143287526
1 105
     0.001403155871680     0.007878988539672     0.002896591905845
     0.001318625869086     0.003430831019234     0.001161774810945
     0.002173724482332     0.000758049323857    -0.001819672512927
2 1
     0.264617270767805    -0.082107010473238     0.072018641832814
    -0.081477275284360     0.242256912545626     0.017996449212735
    -0.096392165370807    -0.021062419596805    -0.299690666284612
2 2
    20.135968632345723     0.873686484396458    -0.020095550124023
     0.873686484396458    16.778519499091338    -0.345218883124198
    -0.020095550124023    -0.345218883124198    14.403544913930574
2 3
    -0.000596239472268    -0.000701743021959     0.001252797439873
    -0.001703483223223     0.001043198288043    -0.000147608707184
     0.003131877630206    -0.001030952922919     0.002456344676139
2 4
    -0.000039991188670     0.000671390894014     0.003825858521512
     0.001064319303789     0.000209378948588    -0.000806839764744
    -0.001785072252413     0.000203111503941     0.002724838740584
2 5
     0.000350815139625    -0.000493302712573     0.002276527714984
    -0.000159064300658     0.000336534179312    -0.000423294733486
     0.000158898259765     0.000747594626378     0.002686040059951
2 6
     0.070893369436484    -0.031992011345066     0.004323359134852
     0.023555481738651     0.025384870943076     0.022797265303103
     0.065941307229638    -0.041618498216809     0.032064486993039
2 7
    -1.345812389370626    -0.074972762664220    -1.110731660446866
     0.409126941168492     0.473595009787074     0.310727823516760
    -1.532765587591775     0.008067369972834    -0.762557046828978
2 8
    -1.336984900906305    -0.144517823964309     0.984178886314595
     0.436719977481375     0.434727321811231    -0.305497469830833
     1.418822768011682     0.110904268818106    -0.615257097528264
2 9
     0.001023843482282     0.001001982108997     0.001473085652927
     0.002045631555162     0.002044045138519     0.002087621415655
     0.000784746782059     0.000686769206502     0.002360225642007
2 10
     0.001328054256398    -0.000272069324824     0.001565121007493
    -0.000084278184372     0.000069683596538     0.000024419257295
    -0.000705424585021    -0.001531832461628     0.002751673904063
2 11
     0.000595068269977    -0.000562275405187     0.001600004126558
    -0.001267910182830    -0.000303403396475    -0.001112821914746
     0.000628856591316     0.002773161415923     0.001210373985081
2 12
     0.044933712531808     0.017928415842479    -0.011288726367626
     0.059850319495170     0.022829486298145     0.016613699294909
     0.012393007872300     0.014663799431878     0.026648213234570
2 13
    -0.088066004302029    -0.148151071226082    -0.439025573639667
    -0.174984002187168    -0.140124607083017    -0.414196003308733
     0.163687399059802     0.032217123101341     0.136144193617148
2 14
    -0.150986419789879    -0.195040757827256     0.483989001084471
    -0.227241957546436    -0.156245884808710     0.430740338982794
    -0.122271118627905    -0.009567496260414     0.116950573148487
2 15
     0.003483203909254    -0.004691290876376    -0.061410710941846
    -0.014042349102058     0.030898831318916     0.013102664116332
    -0.052720571166483     0.023229602301282     0.039411322852721
2 16
     0.019670939917574    -0.029253472923933     0.069715773889873
     0.005735178789356     0.023804686021335     0.000371401743296
     0.037818241708425    -0.025244732116027     0.024450587078443
2 17
    -0.043041900312840    -0.031328502047879    -0.013548512290177
    -0.014994705492909     0.004177982859293     0.008286574007765
     0.007845767047321    -0.007794534644654     0.076154820618599
2 18
    -0.001110539673972    -0.003817597967914     0.000693363638842
    -0.001081405654706     0.002065556674852    -0.002272945833762
    -0.000773901235002     0.001221554153588     0.000079138951585
2 19
    -0.006449235349585     0.027581287880240     0.002331739001782
     0.001088018227413    -0.006611752012443    -0.002398048570015
     0.000097953943114     0.000376189120391     0.004505544493742
2 20
    -0.004518978698595     0.021135858559060     0.003130861912620
    -0.002543118718758    -0.001442888795856     0.000570539332667
     0.005689155859861    -0.006936097745719    -0.013757995665497
2 21
    -0.006844111989575     0.021727886114964    -0.015729101837313
     0.000731620060471    -0.007252430304935     0.004011550340121
     0.002084224707764     0.004100500086354     0.007876309436002
2 22
    -0.008048299738773     0.019563224377258     0.015281354579066
     0.002603842434519    -0.009352915070419    -0.006968775585151
    -0.007931719346211     0.004572302181305     0.012763925985719
2 23
    -0.001213772708072     0.000503522640017     0.002359848779346
     0.003143139778717    -0.000605051806104     0.000824611983436
    -0.001369410283060    -0.003770719812285     0.001869323558212
2 24
     0.000093883108665     0.000380177156486     0.002216874018787
     0.000020627280796     0.000274762334461    -0.000696404044670
    -0.000931174834707    -0.000429133951625     0.001809698559446
2 25
    -0.000246696752835    -0.000453337054439     0.001714141441485
    -0.000441191441985    -0.000244032326362    -0.002310394611023
    -0.000203153708726     0.002539490579410     0.002400953557839
2 26
     0.005840050508490     0.008206148955543     0.000119477396395
     0.005259096962951     0.001848321669734    -0.004087026316639
    -0.015013289673236     0.002848366311459     0.004448708645596
2 27
    -0.001724391923667     0.011270346291387    -0.002938412322763
     0.009856999972479     0.002746576771405     0.003392206442987
     0.001888309205386    -0.000567807794112     0.001721508429312
2 28
    -0.009663794775420     0.020571495668083    -0.002618521685411
     0.000376901315517     0.015992094819898    -0.001843765710978
    -0.010242214210849     0.000246573193564     0.003128681707579
2 29
    -0.000217134526869    -0.001162169549705     0.002156348280060
    -0.001451718523758    -0.000457262662886    -0.005105737181746
     0.000635470106062     0.005024848311230     0.000761325956120
2 30
     0.000046330516623     0.001576511901338    -0.000314604777796
     0.001038098749998    -0.000090809426271     0.001466979292801
     0.000106376798685    -0.002570775352023     0.000978033037941
2 31
    -0.000612602500812     0.001144847997448     0.000839933477925
    -0.000396161763613     0.000192235311244    -0.001877824144500
    -0.000522207796376     0.001523514196492     0.002211658414800
2 32
    -0.004523213045415    -0.000033707742413    -0.005372172410653
     0.001147066373128     0.000244738949195     0.003273685243259
     0.005858566780160    -0.006637885330721    -0.000918579165928
2 33
    -0.007893436105821     0.001922905976659    -0.004933975555280
     0.001117728020598     0.000811937748844     0.000412602380702
    -0.001700258861281     0.000251498249405    -0.000541267073312
2 34
    -0.012949176587602     0.003155599822564     0.004762136299134
     0.000808740774965     0.000132490130116    -0.004110909097327
     0.003117821120512    -0.000447095532661     0.000301765029966
2 35
     0.002623395415857    -0.015274457170584    -0.006788712332950
    -0.005547468902303    -0.009117103578067     0.007413703749621
     0.031907252945632    -0.010489507315531     0.010676486752625
2 36
    -0.008181615494100    -0.011505654395693     0.009355501412215
    -0.016988051283265    -0.013845020358801     0.000060688461036
    -0.018715860737891     0.014855427025871     0.000274054411422
2 37
    -0.133552100701719    -0.033624796107735    -0.000799971804367
    -0.064887960817707    -0.021692738315665     0.000544378470645
     0.003280034330387     0.001454012001020    -0.028990644947764
2 38
     0.000473575531287    -0.001310795981922     0.003040271126011
    -0.000891460587645    -0.000648847356249     0.005639179091167
     0.000646528637323    -0.005359418741644     0.000920274718048
2 39
    -0.000016270857329    -0.000182070877725     0.001467822799708
     0.000243041190836    -0.000936857771588    -0.002801295729864
    -0.000662416747398     0.003977190568363     0.001012527178681
2 40
    -0.000363558131024    -0.000593608556198     0.002482524180785
    -0.000373107301411     0.001452110108945     0.001845308213939
    -0.000529931166440    -0.001141684762321     0.000696774863993
2 41
    -0.003733918468525    -0.003376991236247     0.004635551128230