5    
3    

1    
  0.0100000000000000   0.0000000000000000   0.0000000000000000
  -0.1401727100   -0.1012851500    0.1012851500
   0.0153913800    0.0050917500   -0.0135810300
  -0.0166633800   -0.0051531800    0.0051531800
   0.0153913800    0.0135810300   -0.0050917500
   0.1260533400    0.0877655500   -0.0877655500

1    
 -0.0100000000000000   0.0000000000000000   0.0000000000000000
   0.1279577900    0.0866809200   -0.0866809200
  -0.0042229000   -0.0161075900    0.0023206000
   0.0054292300    0.0160452500   -0.0160452500
  -0.0042229000   -0.0023206000    0.0161075900
  -0.1249412100   -0.0842979900    0.0842979900

5    
  0.0100000000000000   0.0000000000000000   0.0000000000000000
   0.1192927700    0.0787620600   -0.0787620600
   0.1316976600   -0.0933064700   -0.0933064700
   0.1192927700   -0.0787620600    0.0787620600
   0.1316976600    0.0933064700    0.0933064700
  -0.5019808600    0.0000000000   -0.0000000000