phonopy:
  version: 2.5.0
  frequency_unit_conversion_factor: 15.633302
  symmetry_tolerance: 1.00000e-05
  configuration:
    cell_filename: "CONTCAR"
    dim: "1 1 1"
    create_displacements: ".true."

physical_unit:
  atomic_mass: "AMU"
  length: "Angstrom"
  force_constants: "eV/Angstrom^2"

supercell_matrix:
- [   1,   0,   0 ]
- [   0,   1,   0 ]
- [   0,   0,   1 ]

space_group:
  type: "P-43m"
  number: 215
  Hall_symbol: "P -4 2 3"

primitive_cell:
  lattice:
  - [    16.000000000000000,     0.000000000000000,     0.000000000000000 ] # a
  - [     0.000000000000000,    16.000000000000000,     0.000000000000000 ] # b
  - [     0.000000000000000,     0.000000000000000,    16.000000000000000 ] # c
  points:
  - symbol: H  # 1
    coordinates: [  0.460462914847642,  0.460462914847642,  0.539537085152358 ]
    mass: 1.007940
  - symbol: H  # 2
    coordinates: [  0.539537085152358,  0.460462914847642,  0.460462914847642 ]
    mass: 1.007940
  - symbol: H  # 3
    coordinates: [  0.460462914847642,  0.539537085152358,  0.460462914847642 ]
    mass: 1.007940
  - symbol: H  # 4
    coordinates: [  0.539537085152358,  0.539537085152358,  0.539537085152358 ]
    mass: 1.007940
  - symbol: C  # 5
    coordinates: [  0.500000000000000,  0.500000000000000,  0.500000000000000 ]
    mass: 12.010700
  reciprocal_lattice: # without 2pi
  - [     0.062500000000000,     0.000000000000000,     0.000000000000000 ] # a*
  - [     0.000000000000000,     0.062500000000000,     0.000000000000000 ] # b*
  - [     0.000000000000000,     0.000000000000000,     0.062500000000000 ] # c*

unit_cell:
  lattice:
  - [    16.000000000000000,     0.000000000000000,     0.000000000000000 ] # a
  - [     0.000000000000000,    16.000000000000000,     0.000000000000000 ] # b
  - [     0.000000000000000,     0.000000000000000,    16.000000000000000 ] # c
  points:
  - symbol: H  # 1
    coordinates: [  0.460462914847642,  0.460462914847642,  0.539537085152358 ]
    mass: 1.007940
    reduced_to: 1
  - symbol: H  # 2
    coordinates: [  0.539537085152358,  0.460462914847642,  0.460462914847642 ]
    mass: 1.007940
    reduced_to: 2
  - symbol: H  # 3
    coordinates: [  0.460462914847642,  0.539537085152358,  0.460462914847642 ]
    mass: 1.007940
    reduced_to: 3
  - symbol: H  # 4
    coordinates: [  0.539537085152358,  0.539537085152358,  0.539537085152358 ]
    mass: 1.007940
    reduced_to: 4
  - symbol: C  # 5
    coordinates: [  0.500000000000000,  0.500000000000000,  0.500000000000000 ]
    mass: 12.010700
    reduced_to: 5

supercell:
  lattice:
  - [    16.000000000000000,     0.000000000000000,     0.000000000000000 ] # a
  - [     0.000000000000000,    16.000000000000000,     0.000000000000000 ] # b
  - [     0.000000000000000,     0.000000000000000,    16.000000000000000 ] # c
  points:
  - symbol: H  # 1
    coordinates: [  0.460462914847642,  0.460462914847642,  0.539537085152358 ]
    mass: 1.007940
    reduced_to: 1
  - symbol: H  # 2
    coordinates: [  0.539537085152358,  0.460462914847642,  0.460462914847642 ]
    mass: 1.007940
    reduced_to: 2
  - symbol: H  # 3
    coordinates: [  0.460462914847642,  0.539537085152358,  0.460462914847642 ]
    mass: 1.007940
    reduced_to: 3
  - symbol: H  # 4
    coordinates: [  0.539537085152358,  0.539537085152358,  0.539537085152358 ]
    mass: 1.007940
    reduced_to: 4
  - symbol: C  # 5
    coordinates: [  0.500000000000000,  0.500000000000000,  0.500000000000000 ]
    mass: 12.010700
    reduced_to: 5

displacements:
- atom:    1
  displacement:
    [   0.0100000000000000,  0.0000000000000000,  0.0000000000000000 ]
- atom:    1
  displacement:
    [  -0.0100000000000000,  0.0000000000000000,  0.0000000000000000 ]
- atom:    5
  displacement:
    [   0.0100000000000000,  0.0000000000000000,  0.0000000000000000 ]
