 106  106
1 1
    20.640267199517400     1.023927820984631    -0.492379174775376
     1.023927820984631    16.306116411020746     0.376040480058995
    -0.492379174775376     0.376040480058995    14.147470618770813
1 2
     0.165961056898922    -0.067616134409039    -0.068248748986798
    -0.068623255949626     0.238681704552712     0.015615870109115
     0.083047288916073    -0.016658325270732    -0.340381417375424
1 3
     0.000450497410436     0.000134996622934     0.000522715427445
     0.000088268268132     0.000929723346462    -0.001467199136297
    -0.000320950965504     0.000157872594561     0.004870948499505
1 4
     0.000737924486796    -0.000803282922888    -0.002165937828798
     0.000426735424365     0.000834896674653    -0.001130969198435
     0.001713174485770     0.000029290117425     0.005772852692369
1 5
    -0.000915682854804    -0.001195571335207     0.002916166197644
     0.000829938035419    -0.001474124400083    -0.001959926483530
    -0.002397344537326    -0.001328001689107     0.005783899423066
1 6
    -1.663369148579172    -0.069364013764576     1.477771733864008
     0.378962899637026     0.461484390260227    -0.218335622253775
     1.611193429123586     0.034911162565062    -0.896958789214632
1 7
     0.037185133750151     0.004240862329668    -0.021597577306217
     0.001197702601160     0.044167634038009    -0.018207302448787
    -0.004967086045410    -0.008188867877282     0.141770206085157
1 8
    -1.467766127156301    -0.156022109687549    -1.176478251747329
     0.378149838892484     0.460689888771077     0.240722397396123
    -1.539421489575191    -0.080919494964910    -0.695297605269864
1 9
     0.001234037492632     0.001611278291266     0.002633363958987
    -0.001029344704057     0.001128537429289    -0.000718358169056
    -0.000560001344233     0.002861206933900     0.002063775644321
1 10
    -0.001214322316432     0.004155320828891     0.000715961344497
    -0.001069441426194    -0.003311187342273    -0.000426980687755
    -0.000249702924454    -0.003588228032607     0.000638128243597
1 11
     0.001151382768818     0.000204060922471    -0.000105394961348
    -0.001181614550372    -0.000281902065812    -0.000484397190459
    -0.000418839254083    -0.003195514651400     0.001088389555911
1 12
    -0.126415248180818    -0.167892763232676     0.415144884341526
    -0.212789229200896    -0.157702036009405     0.384790274830930
    -0.130938185009297    -0.077506483467235     0.111712146307112
1 13
     0.039576690720019     0.014808675716186    -0.007040901822724
     0.061291173223973     0.049214271975012    -0.000930270264250
     0.012160678437721     0.001391546235839     0.028950623180270
1 14
    -0.133590714673043    -0.169034022135267    -0.441951060672821
    -0.220115984588288    -0.165613609749393    -0.384597994888502
     0.107396893752583     0.062735351423437     0.107041887352382
1 15
    -0.142004919943366    -0.010276695860594     0.022224765636139
     0.049868381628950    -0.021049420615212     0.001584248277037
    -0.020454199935510     0.009586355834052    -0.013159345166236
1 16
     0.061190046039081    -0.008960797216821    -0.116870069331918
    -0.040135835998674     0.060435084639269     0.049190464363678
    -0.142241202996574     0.040808697095200     0.027488132203788
1 17
     0.067478252168616    -0.009697256426634     0.107274737305163
    -0.038999598948259     0.058820102495773    -0.048836125696675
     0.171898111609024    -0.064504507153164     0.053631702176874
1 18
    -0.000400650664808     0.017547596733111     0.000916982345878
     0.001788112289571    -0.006194111783921     0.000262500168927
    -0.000358946198384    -0.000476851732053     0.000922345573591
1 19
     0.002169670604502    -0.004375143562842    -0.001463121855821
     0.000996789689120    -0.000411666017951    -0.000491500283281
    -0.005615091173518     0.009088623896927    -0.000910764885749
1 20
    -0.000666264551450    -0.002670446929392     0.004388344863325
    -0.000109337610405    -0.000502379129584    -0.000864093683007
     0.004181387270134    -0.003924290671249    -0.002002562580839
1 21
     0.010664749443823     0.011649546517102     0.016367297494157
     0.013957641342482    -0.008983584743770    -0.008345717338416
    -0.016197540766863     0.009122870585073     0.004483546639699
1 22
    -0.025217263792817     0.054292007317605    -0.001151978251552
     0.005875321014698    -0.009588822689388    -0.000473517410516
    -0.010510377385593     0.009102740824436    -0.028789230344291
1 23
     0.005732124022836     0.012853450190030    -0.016564337277171
     0.013836233343354    -0.009681826350241     0.010768682705926
     0.006319649105530    -0.009495178800483     0.012181371722120
1 24
     0.000701777592341     0.000278748200731     0.000545830417407
     0.000314093559608     0.000459760679897    -0.002144889924168
    -0.000222779523323     0.002189292073522     0.004141234673156
1 25
    -0.002016167609861    -0.000134155715921     0.001265474870428
    -0.000328112801080    -0.002106463259708    -0.000797368537647
     0.000869052137386    -0.001424832715557     0.004447938452301
1 26
    -0.000007056430669     0.000645206816141     0.001647505350353
    -0.000279567846598     0.000335793343390    -0.000202634414854
    -0.001044356342631     0.000440943712838     0.004154063213747
1 27
    -0.004007857251218     0.026894842132244     0.004028911996723
    -0.004946605123778     0.004884864589056     0.001838044357391
     0.006580729763169     0.000541396258720     0.019368669570585
1 28
     0.008941598698438     0.007527035008625     0.018045306042819
     0.011910456193780     0.006762546770008    -0.007941421866614
    -0.006515847295294     0.003613385586044    -0.005062485257239
1 29
     0.012984294262050     0.007338578993580    -0.014367749671590
     0.009491306157821     0.004744514701059     0.010380988573581
     0.012311711192390    -0.004103993541733     0.001684763066010
1 30
    -0.001775204380381     0.001292227850371     0.001634085489144
     0.001378679198525     0.000446295490671     0.000043570697748
    -0.000174307302109    -0.000077704792182     0.002937024591805
1 31
    -0.000714371119637     0.000078238311727     0.002937331499940
     0.000583658883310     0.000194968589557    -0.005484783974466
    -0.000690634461184     0.004384145411820     0.002369023254790
1 32
    -0.002057964785367     0.001258912270573     0.000860508898290
    -0.000203558611937    -0.001476214143925     0.003451740058552
    -0.000155555810457    -0.002804054279526     0.001697642523654
1 33
    -0.007901493911886     0.004369567827631     0.008603636882737
    -0.002541029292821     0.001349021202169    -0.001751162713630
    -0.001900480343366     0.003181100672382    -0.000368391727390
1 34
    -0.006419531928132    -0.001609764599667     0.001103717310251
     0.001892503492964    -0.001180747321323     0.001164396105984
    -0.000842265202214     0.000684163048227    -0.001367948117578
1 35
    -0.011741619595354     0.004830428984260    -0.005517367492430
    -0.001614734137659     0.000389363093282     0.004276654263910
     0.001689432620435    -0.003040457187433    -0.000706752190374
1 36
    -0.088581467422476    -0.082369811864644     0.003655907546838
    -0.041133035761725    -0.045047557156704     0.003199798177628
    -0.001418636346007    -0.001519356449502    -0.027163985014388
1 37
    -0.042582921354696    -0.012932856223115    -0.008215073266466
    -0.036848267220478    -0.007112956942224     0.001804377918228
    -0.009270647550185    -0.019120188651914    -0.003341441746066
1 38
    -0.011106843137543    -0.005760496734201     0.000166983656904
    -0.021763346145246    -0.004954445433296    -0.004202467132990
    -0.013269739615460     0.011434112568306     0.003934083560044
1 39
    -0.001130983675123    -0.001393290511303    -0.001149846604558
    -0.001582097113234    -0.000382623041037    -0.001519142285512
    -0.000050247197669     0.000118304868457     0.003183135044094
1 40
    -0.001250290364151    -0.001698186745772    -0.001282524876570
    -0.001886840356751    -0.001589500598981     0.004595796691178
    -0.000082691323208    -0.006519792867991     0.002782418499790
1 41
    -0.000941416410446    -0.001552614806495    -0.000714576637414
    -0.001048335790740    -0.002279689734789    -0.006912483701334
     0.000359410430551     0.007308226242461     0.003745332312820
1 42
    -0.004562741410688    -0.005838532852404    -0.001931685384920
    -0.002069521472695    -0.004671928105200     0.003581493500968
     0.000218144022340    -0.001432402076283     0.000721821851942
1 43
    -0.007976959499010    -0.001621460395211    -0.001170960111295
    -0.007031562904930    -0.004360580407360    -0.000455430368840
     0.000522804998734     0.000909226617887    -0.000914569169825
1 44
    -0.006913263833730    -0.007835830361563    -0.002432967090144
    -0.002505729582414    -0.006084382498617    -0.007164121140307
     0.000897048305167     0.003360043666874     0.001255381464229
1 45
     0.003266695087236    -0.014200780616388    -0.001033949814533
     0.000618144521208    -0.009667221707369    -0.000920081100392
    -0.000214822020980    -0.000260284160255     0.003298921478981
1 46
    -0.000200767795464     0.002944096204570     0.004818059435523
    -0.001061752342773     0.000506715059871     0.006432223967463
    -0.001712202133783     0.003827329509817     0.000825040293619
1 47
    -0.000911292860125     0.001619352019769    -0.005504868896841
    -0.001341700965395    -0.000612087675177    -0.006606792227361
     0.001488272360273    -0.002444939233935     0.001770036111794
1 48
     0.296996096309115     0.265621350717929    -0.011608125370749
     0.284006780130095    -2.634838348547587     0.002944879608704
    -0.025522373694838    -0.068246478056055     0.382073288805395
1 49
     0.174283059978420     0.076851154478679    -0.052224877842923
    -0.115609084811950    -0.137620736176201     0.253528468963542
     0.062244488782702     0.076745545481400    -0.189742271685757
1 50
     0.220728424760573     0.085015364225804     0.057466595087082
    -0.119608610909441    -0.123022102069521    -0.238260615161819
    -0.176556251933147    -0.149066880599855    -0.236970060946886
1 51
     0.001677694140635    -0.001546248381337    -0.000130332137817
     0.000305594478150     0.001576906462591     0.000050964561084
     0.000600407954559    -0.000232697095346     0.003744189963108
1 52
    -0.000179328035445    -0.003397445500547    -0.000164321851188
     0.001487383147621    -0.004111880925071    -0.000955200067434
    -0.000159230209591    -0.000774572126175     0.002802274407137
1 53
     0.001455246920168    -0.000570410605204    -0.000220838576613
     0.000678399533746     0.001360948220030    -0.001580213621100
     0.000774494158822     0.000657519298725     0.003790638088207
1 54
    -1.170981615163721    -0.739979638609241    -1.447967005190175
    -1.047495898127700     0.158327262571969    -0.890639238527544
    -1.310258884641294    -0.680144829872419    -0.876890786700247
1 55
     0.047592937901074    -0.006042914109261    -0.022873594862687
     0.028787671248893     0.074502836147619     0.002022843199057
    -0.001830287669041     0.035783467674620     0.023087271958208
1 56
    -1.197874075863527    -0.572889335645027     1.393539445049944
    -1.065777500738464     0.091813939140082     0.858275197877469
     1.114470468219182     0.431144933438400    -0.703718430488293
1 57
     0.000553846872114    -0.000169960067820    -0.001173407720711
     0.000168102345796     0.000553435962841     0.000171337526878
     0.000680796163910    -0.001294886366113     0.005169254697237
1 58
    -0.001937363565140    -0.000131392110265    -0.000332368928034
    -0.000325589520280    -0.002004983480582    -0.001717146426120
     0.000170279305617    -0.001372155065884     0.004810618970668
1 59
    -0.000157464156482    -0.001118149187816     0.001034232662262
     0.000040050079841    -0.000850609967221    -0.004158183234187
    -0.002053628312493     0.001014430836953     0.005567276208912
1 60
    -0.062707727831971    -0.032151600656266    -0.008087603863017
    -0.084721957240973    -0.105878359990933     0.005884460301342
    -0.012667157184668     0.006850542052211    -0.009530789325508
1 61
     0.092406445427152     0.049264634421010     0.179820949869008
     0.031568130565091     0.053997528189150     0.121694652314839
     0.080683115016676     0.077142649397685     0.065150428555418
1 62
     0.082210256789380     0.014957244234190    -0.137251409234406
     0.030291996488988     0.044255929877328    -0.119295426332060
    -0.096001975059598    -0.081416670132302     0.063899372222210
1 63
     0.001251733922720     0.000291781991971     0.000316271638767
     0.000292777666914     0.000716046952116    -0.000842651812784
    -0.000438284905704     0.000808447186444     0.003437543620719
1 64
    -0.000153740020052     0.001227278122048     0.000461752762704
     0.000783751645464    -0.000653215312273    -0.000365490570924
     0.001695146115449     0.000762236739797     0.004134950321084
1 65
    -0.007902881988914    -0.029090316402097     0.003149161522869
    -0.010983545860717    -0.003939301850483     0.002706867127316
    -0.004070868325778    -0.013645418030322     0.011261511566203
1 66
    -0.006313265151606    -0.052122375983658     0.001738980068303
    -0.004092298842297    -0.025215097813078     0.001663947113147
     0.001390843311422     0.009365993925273    -0.025123274410315
1 67
    -0.008272712351806    -0.013479468673916    -0.000603335305278
    -0.009779613192666     0.004782990649343    -0.003794657349056
     0.012847809239069     0.013078188000572     0.012065047826215
1 68
    -0.208403508726390     0.023765711511030    -0.054322637334394
     0.135579708659572     0.055174566267226    -0.016362856720184
    -0.179533087669780    -0.057610190780076     0.093805421829713
1 69
     0.013686395208364    -0.007881421333748     0.007498901319179
     0.033487668022452     0.040762344823195     0.000546206567085
     0.004849443831555    -0.010420975686475    -0.021117540526790
1 70
    -0.169551725720197     0.019350653416702     0.045962048480250
     0.172869444597566     0.024162699379966     0.030011954022935
     0.140359189219683     0.058999804347218     0.058429634817066
1 71
     0.070337035858013    -0.005792146661102     0.001013139351888
     0.002613513172281    -0.003858303235102     0.002845646027215
    -0.000700270557127    -0.001557241249670     0.009633768582051
1 72
    -0.006075011493908    -0.000228676406729    -0.002425073172957
    -0.002667948611586    -0.010340557244897    -0.008260356224916
     0.020440193236340     0.002882161816125     0.008916662618815
1 73
     0.000547027836253    -0.004139338207982     0.004398662252406
    -0.003497929842413    -0.006758838118626     0.009531728013036
    -0.011044881411656     0.001005174287880     0.005371108869512
1 74
     0.003478066545947    -0.001573411918863    -0.000919544679131
     0.001694321698722     0.001162498874000     0.000836236596566
     0.001964093909676    -0.002626530641031    -0.003197596520118
1 75
    -0.001461312306463     0.003633865677719    -0.000737226049679
     0.000487949429505     0.002538613823806    -0.001413351845356
     0.000624192277453     0.000726955040579    -0.002736272898356
1 76
     0.001553524184256    -0.001500863697608    -0.000055110449465
     0.001913252157171    -0.000078617671801    -0.005534122101183
    -0.000460055053063     0.000206001314312    -0.004848210365429
1 77
     0.000328883742319    -0.003303190084544     0.000134299728687
    -0.000253884988790     0.001627428374097    -0.000698183664674
     0.000489750482568     0.006152184883134    -0.000771976625284
1 78
     0.001591328427368    -0.004446106911938    -0.005315600019189
    -0.001176880464997     0.001469677802686    -0.001364943493406
     0.000113620280660     0.005364912541578     0.000419798449637
1 79
     0.001438641857281    -0.002035167234523     0.006206595646693
     0.000007358774771     0.002433402025450    -0.000078023717926
     0.001509076182537    -0.001854990730874    -0.000025575371933
1 80
     0.078494084141994     0.075604465520415     0.034046303489454
     0.031245347821307     0.022534075255940    -0.002649886555222
     0.027176791575286     0.046583157431876     0.012996265114226
1 81
    -0.025995869038121    -0.002577255012999    -0.010293556410678
    -0.009190958247072    -0.012281323715385    -0.005403324061831
    -0.007499764591171    -0.003590928503386    -0.015369508545543
1 82
     0.091666970549510     0.088400888322367    -0.039801749680267
     0.034387081609472     0.019037822702391     0.000786840126604
    -0.011716123293647    -0.040881183114682    -0.007799151378659
1 83
    -0.285508099347093    -0.019286837905197     0.086512499637411
     0.141390062112771    -0.039394289185920    -0.014624000756581
     0.348736633731216     0.098496394673450    -0.144033646863149
1 84
     0.027027354746922    -0.059034429836568    -0.009820115076572
     0.022969839111748    -0.031924052073115     0.003586817340967
     0.006056044527451    -0.003720434508895     0.033286909370224
1 85
    -0.255843645082760     0.012984503331334    -0.145174967167671
     0.122717582514144    -0.027970088141980     0.003639824703802
    -0.239008009203557    -0.097380930373381    -0.183259075007540
1 86
    -0.647202693528189     0.099592744370802    -0.008822207994517
    -0.102574341137393    -0.005742341342664     0.046492083033075
     0.059960927476853     0.039671762535434     0.394220067526297
1 87
    -0.213164376713650     0.044356038701748    -0.155389026931567
    -0.160582011991051    -0.033489144091763    -0.162548138409739
    -0.131902198442220     0.010295746920226    -0.117860158174739
1 88
    -0.275736763429221     0.027724676205612     0.131591445137282
    -0.127184515514372     0.006595262855048     0.162349611741625
     0.176862888720274     0.042460662151411    -0.110332224762010
1 89
    -3.387831276044191     2.834262463440957    -3.268277587814575
     2.771769122047804    -4.137705785552255     3.692325546086010
    -3.020124363005066     3.794381462175076    -5.032455805779819
1 90
    -0.104743921655650    -0.157549243122480    -0.001329010868524
    -0.172212606965318    -0.125405733680838    -0.039621015144330
    -0.040811327866577    -0.044089229433592     0.247214635355508
1 91
    -3.977362051002967     3.013129169088672     3.734863555732695
     3.092657092202074    -4.547014637180474    -4.118910963882079
     3.600699782815797    -3.942254287211534    -5.320415402157960
1 92
    -6.519030691288603    -5.187920514563380    -0.003331327316515
    -5.075990084780630    -5.640062634348603     0.073875322419937
     0.130061167953451     0.149472322817305    -0.880877469617591
1 93
    -0.049399399590965    -0.120807226235678     0.439250992617547
    -0.030201737102787    -0.090103904658253     0.112743819684967
     0.191164488572311     0.178702016808638    -0.151725378823941
1 94
     0.077243299720035    -0.109338029454829    -0.453783792564385
    -0.038285562603967    -0.097571608292613    -0.130886687771681
    -0.331816442628473    -0.171725505877247    -0.090857754636702
1 95
     0.001026536882429     0.000527461613606    -0.000733144483994
     0.000301785895120     0.001130052088437     0.000392776153958
    -0.000736260731083    -0.000215933552371    -0.003136373816273
1 96
    -0.002313960896788    -0.000609219685470     0.000725179594585
    -0.000406585023641    -0.002184538795639    -0.001115112826999
    -0.000069482190567    -0.001948350108321    -0.003422216538866
1 97
    -0.000274429512760    -0.000049257570881     0.002846436677663
     0.000016895256248     0.000297219416319    -0.002924145930949
    -0.000384727867833    -0.000935424000714    -0.001826812217192
1 98
    -0.001292008308204     0.000803293317651    -0.000383374596063
    -0.000715996685947     0.001526636031951     0.000493224625798
     0.000328725775779     0.002312268589113    -0.002651272132057
1 99
     0.000427836156667     0.000083760577595    -0.001456179223738
    -0.000550659313231     0.000250581709771     0.008382671090893
     0.001161369517718    -0.000144064690768    -0.004261458012015
1 100
    -0.000000478788455     0.000145325007235     0.000101924323268
    -0.001957164868423     0.000231057338640    -0.008709187233041
    -0.002829325898851     0.002037917941407    -0.003128694571908
1 101
     0.001157122240813    -0.006208846423699    -0.000341332348312
     0.000094105296727     0.007122579827230    -0.001656477424850
     0.002807358747375    -0.006277450717769    -0.001002483766500
1 102
     0.005787620237880    -0.006489093264943     0.001370949812188
    -0.003122654202115    -0.000481254334403     0.000322328144250
    -0.000766121321173     0.001049125420842     0.003489309015645
1 103
    -0.000834584480679    -0.005789653287772     0.003925315717227
     0.000273118143045     0.004562939185714     0.003125325024957
    -0.002076239263176     0.000425759452766    -0.000022173778334
1 104
    -0.001996199788656     0.013118239134968    -0.002559878937731
    -0.003160840254225    -0.008404070708706    -0.003579974517844
     0.003987342728322    -0.002999314693474    -0.004686398349069
1 105
    -0.000391329518315     0.004873219719556     0.005326271218583
     0.002180582799915     0.003374187662599     0.010939834692443
    -0.003619035115565    -0.009434842086139    -0.003383872308296
1 106
     0.000613465558357     0.004017065439837    -0.006244332905918
    -0.000086264746129     0.004769469088997    -0.010593087006193
     0.001493855041344     0.015988531988696    -0.003358947630374
2 1
     0.165961056898922    -0.068623255949626     0.083047288916073
    -0.067616134409039     0.238681704552712    -0.016658325270732
    -0.068248748986798     0.015615870109115    -0.340381417375424
2 2
    20.774368726438130     0.889237286506958     0.014253661911182
     0.889237286506958    16.474476977859585     0.089325848351814
     0.014253661911182     0.089325848351814    14.412927652791389
2 3
     0.000379008393604     0.000751788992290    -0.004337944512652
     0.000833604500562     0.000235003099420     0.000294498069979
     0.002790747545221    -0.000140590852967     0.006924013506946
2 4
     0.000582982069182     0.000099819045572     0.001596319700812
    -0.001128827867329    -0.000410269502979    -0.000816407156376
    -0.002666237704461    -0.000132513515422     0.007953125322924
2 5
     0.001918444335574    -0.000011171215121    -0.000443768929178
     0.000471999008972     0.001588139940105    -0.000658531493872
     0.000024952262060    -0.000741458797697     0.007874609240154
2 6
     0.035927510588903     0.003853132383288     0.016019312728736
    -0.000836491236304     0.042499630855027     0.021867836344407
     0.013042297050375     0.005967977338026     0.140183796289010
2 7
    -1.705804568350084    -0.077997092364834    -1.508706387186430
     0.384818375680239     0.465853621100535     0.222758885001539
    -1.632102583933286    -0.041012776593106    -0.901663369515866
2 8
    -1.491930379068128    -0.155591985887984     1.201558798125362
     0.374850177841767     0.465117833213388    -0.235398797936752
     1.545772421709473     0.088457166005587    -0.700383022550405
2 9
    -0.000303137466129     0.003086178218497    -0.003349739620264
    -0.001253915727203    -0.001061838274564     0.000595559510920
     0.001141413622893     0.000720559773105     0.002050838889775
2 10
     0.001626294991447     0.001275600607904    -0.001348519815222
    -0.001276465535237     0.000240317328009     0.000494047746612
     0.000246079468849    -0.003870732594630     0.003282486785378
2 11
     0.002747594273854     0.001346017563826     0.000736108429531
    -0.000192430081046     0.002356562591982     0.000203729342236
    -0.001638531674693    -0.001897493781668     0.002460388416744
2 12
     0.037575462758635     0.013014652090435    -0.002547783435403
     0.058776516491697     0.047949183319943     0.008614598260655
    -0.000530403929546    -0.003791784557642     0.025178306931486
2 13
    -0.123531904077500    -0.162515499940618    -0.399430612964622
    -0.216405945478101    -0.157033077779398    -0.375102512272245
     0.131932079070181     0.080928087372701     0.109952267323827
2 14
    -0.133846293631286    -0.164352316734043     0.442525985692467
    -0.221100517863140    -0.162154663147239     0.390493725623120
    -0.106374153100228    -0.063138221583560     0.101105441126673
2 15
     0.065898254632906    -0.008405550750116    -0.105867146406157
    -0.038489996809005     0.060348597315853     0.050398901874948
    -0.176587741106340     0.065209884819024     0.054739955566523
2 16
     0.059527889012329    -0.008016206925300     0.119847394594295
    -0.042413429821747     0.060334212309503    -0.048128485907675
     0.142747480919001    -0.039184118850070     0.027445059629856
2 17
    -0.137561385044038    -0.014290391702567    -0.017311196120369
     0.049583837978982    -0.020347938891261    -0.000245045756622
     0.015188795370096    -0.007174003065569    -0.009873133813632
2 18
     0.001265872240952    -0.001596520173106    -0.002375153563682
     0.001263034226970     0.000018651649758     0.000757311165320
    -0.004039608434708     0.005972690698797    -0.000130391376350
2 19
    -0.000160283690792    -0.003925613589846     0.003618834425334
    -0.000105286976708    -0.002400042652968     0.001134005052848
     0.004685564059797    -0.009347992144399     0.000003148360073
2 20
     0.000296236629477     0.018136280979279     0.001285117722803
     0.001817984841902    -0.006232413686127     0.000184863891238
    -0.000228542547343     0.003424051886278     0.001414110324138
2 21
    -0.025609856933617     0.052384173340259    -0.001246955004921
     0.004374458671527    -0.008931352429877     0.005664955674921
     0.013730834964824    -0.010289239979938    -0.028637942049316
2 22
     0.011718159428568     0.010565620184893    -0.014470894118706
     0.012687282090837    -0.008396459911185     0.010337706707529
     0.013156702710344    -0.006789534049714     0.005345522962192
2 23
     0.006570856699613     0.013412152822062     0.018213755581901
     0.013450503689394    -0.008710123798052    -0.008424174230031
    -0.003079925025408     0.006754223310729     0.012686332528292
2 24
    -0.002241582764260    -0.000937518179847     0.002631882963583
    -0.001848151875055    -0.001471762308317     0.003994659607263
    -0.002482092130320    -0.002672167130598     0.006397042834501
2 25
     0.000886880457871     0.000599798821356     0.000899759334365
     0.000125966601998     0.000092532801406     0.001817842249833
     0.000322896503125    -0.002224071908243     0.006819299920680
2 26
     0.001023822672551     0.000612058927159    -0.000936019784647
     0.001444070891265     0.000312050612964    -0.001295107504808
     0.000322005560539     0.003377666646333     0.006515267447631
2 27
     0.013193389171140     0.008492621355216     0.017471500709647
     0.010054160069980     0.005198871467657    -0.007450065602586
    -0.012604774005829     0.004190771688810     0.002977373641006
2 28
     0.009059476750654     0.007659054249946    -0.012651561288207
     0.011714411323059     0.006388392276912     0.010948820145441
     0.005025118407566    -0.001719837683290    -0.005210786890407
2 29
    -0.005890935180201     0.027112261905189    -0.000994194603882
    -0.007016631419178     0.006368552843008     0.001825694860192
    -0.007539068544727     0.000495686774096     0.017978077432448
2 30
    -0.000816111227443     0.001586524949856     0.001572787525646
     0.001704051914276    -0.000181941077303    -0.004074125139400
    -0.000600752586210     0.004147531612783     0.004571095529661
2 31
    -0.001989702192121     0.000477264972905     0.000212459898897
     0.000204471016669    -0.000953898759274     0.006192974207087
     0.000663803933291    -0.003224529195080     0.004103270854377
2 32
    -0.001165957268731     0.001320422426536     0.001332092007102
     0.001677370911642     0.000864238680976     0.000034144133973
    -0.001268836150275     0.002243103767755     0.004136142562286
2 33
    -0.007216334108886    -0.002760418560578    -0.002489216497589
     0.000777643838269    -0.000770117994247     0.010056921147767
     0.006418561322281    -0.005981233159044    -0.001034134214303
2 34
    -0.007715933997142     0.004185444306697    -0.004768894603769
    -0.002910943161962     0.001510852193656     0.004631647961866
     0.000993635013410    -0.001382558205702     0.001024260559856
2 35
    -0.009724006625861     0.006334452531494     0.007468428975051
    -0.001941988470164     0.001460670534461     0.000796398437469
     0.000715578007029     0.000999066845706     0.000446055985027
2 36
    -0.010231169926773    -0.005988330035971    -0.000073724371437
    -0.019304622815608    -0.003663034092690     0.005565198405480
     0.010548724363422    -0.014604290790049     0.001297690172593
2 37
    -0.043672358587029    -0.013999955180212     0.007258448667217
    -0.037122086386658    -0.008387932473180    -0.002703696614695
     0.007766680845357     0.018028306343967    -0.005268040075206
2 38
    -0.086776084371194    -0.083488706431532    -0.004372695763651
    -0.040511342370773    -0.044110264506919    -0.002635696053042
    -0.001751478199801    -0.000459615251383    -0.027391414036974
2 39
    -0.000577262003923    -0.000803612692718    -0.002096477670488
    -0.000645741930727    -0.001868023626172     0.004138132139761
     0.000158564240849    -0.007554645920883     0.002291526680166
2 40
    -0.000837801838952    -0.002286177659203    -0.001378834698770