 107  107
1 1
    14.907464363827028    -8.085383726074479    -1.725058963505382
    -8.085383726074479    65.674352250505905    -1.278453542630485
    -1.725058963505382    -1.278453542630485    72.828680118942842
1 2
    -0.176936199136543     0.305792564971538     0.611903162833213
     0.219946734533445     1.646969593728010     0.464589245254818
    -0.796677439734813    -1.108894975440113    -4.683239286080362
1 3
    -0.091302683772997     0.179001474504395    -0.882855802637771
     0.068660402601098     1.476270796459077    -0.219047518599590
     0.752597915811597     0.505130109329164    -4.647186236685554
1 4
    -7.493993248328448     8.927436305752400    -0.136988123709704
    11.662875146249039   -27.152246818392033     0.417288664865282
     0.072013962703744    -0.184957649853709    -7.375615797416863
1 5
    -0.323979347085185    -0.150563429877124    -0.586497225852879
     0.374573396883887    -0.639653494110351     0.575984564527955
     0.023672516010350     0.730039158552361    -0.253840613285398
1 6
    -0.040929235432585    -0.223125915786618     0.680503165341830
     0.467284701377887    -0.242640953775397    -0.847495462195794
     0.045944069536672    -0.739669051643154     0.217530254445541
1 7
    -0.975234965642259     2.045209025765826     2.899339043260078
     2.277567494916898    -2.247147242767931    -4.670445426469723
     1.399957686382638    -2.956227720995792     0.059795410881479
1 8
    -1.173841683255095     2.115549599676754    -2.540019283651768
     2.181238390827785    -2.279977148769301     4.042690573144927
    -1.814082847037110     3.223775887597280    -0.255593654204606
1 9
     0.778377989496980    -0.081690472228779     0.098404983942075
    -1.261058746234966     0.108273105580533     0.103024353751677
    -0.141416618813438    -0.165651971831980    -0.282434464377571
1 10
    -0.005725584651959    -0.037472322495506     0.009398573434026
     0.069436427010094    -0.039649505138000    -0.012398941353765
    -0.084625807470062    -0.010816277619152     0.005661219460445
1 11
     0.866341468056045    -0.234213909500593    -0.155380693632687
    -1.405748806590488     0.390702858590787    -0.100975519777555
     0.189907289955666     0.059497361942163    -0.398056208402280
1 12
    -0.055633107027212    -0.051065707749995     0.076729670790816
     0.180871744746923    -0.021903812445040    -0.171155872259401
    -0.061617332027438     0.080054508972982    -0.070908996671350
1 13
     0.019921791309150    -0.053856666452152    -0.070308320314684
     0.109416447084543    -0.017178907918996     0.142518607842033
     0.137154619088074    -0.055140036091806    -0.082307841825381
1 14
    -0.017280119592454     0.063355809026688     0.043316642601455
    -0.508819273352510     0.253103930810909    -0.022681528782400
     0.065893842136280    -0.022663470862944     0.413302066144325
1 15
     0.020031989106536     0.006320900446485    -0.080272956279110
     0.004602982024381     0.072325948842055     0.035494073001723
    -0.057098156606634    -0.025598207610282     0.030933573952160
1 16
     0.028136703875461     0.004773812517336     0.045337696288563
     0.004284949739479     0.074388032059680    -0.021295074390888
     0.021174930423271     0.027172457078290     0.017251034790066
1 17
    -0.243172382710130     0.079977945949495     0.010788569210846
     0.092622472395561     0.001879167245394    -0.001606049220624
    -0.028008163867326     0.005243041124178     0.044485952779651
1 18
    -0.172128957571047     0.036732083562862     0.048798066220622
     0.058219691414576     0.105846726971185     0.025733874102794
     0.032583150815260     0.031537781078681    -0.008264011624653
1 19
     0.028530105097230     0.022282133873267     0.003326886198083
     0.005747028750971     0.144019581372005    -0.000495210686139
    -0.003932936255496    -0.001655601731744     0.039243669231605
1 20
    -0.134112048784813    -0.034062897772003    -0.043741928482755
     0.042921858459411     0.082158686604399    -0.032292866910797
    -0.051709446647174    -0.052851354068381    -0.013523773632827
1 21
     0.042836172254953    -0.096967718420608     0.177483572082511
    -0.043915419271300     0.087181833643145     0.125827799119180
     0.199711726910260     0.068890425864043    -0.071161589260311
1 22
    -0.039822148464030     0.040374094993964     0.012252635755455
    -0.208246961311797     0.077582962876527    -0.000223165680126
    -0.019126327626522    -0.007255946053953    -0.026563917819201
1 23
    -0.042842527665156    -0.016178148567219    -0.172876488733846
    -0.101096889260052     0.074852804114965    -0.113751543642336
    -0.226910223170521    -0.046401888582181    -0.061249034958316
1 24
    -0.100572687373602     0.052716927461179    -0.105222693261959
    -0.173228466295062    -0.002540833545397    -0.036741849006343
     0.164318871572002    -0.035358335716716    -0.129227934323128
1 25
    -0.098516322099860     0.051777821612505     0.095884225760979
    -0.101863194297958     0.016983831623871     0.081752463706675
    -0.153862042930411     0.023543412993591    -0.105438018766789
1 26
     0.305620835081319    -0.201624729742006    -0.032483156294934
     0.167439569303665    -0.099239874986810    -0.064049514420971
     0.009153856366552    -0.011814026684181     0.371957649988021
1 27
     0.371135221722055     0.340715396921801    -0.515422177376735
     0.444496740406914     0.513491459715751    -0.728639907516225
    -0.442782498938666    -0.559449333436267     0.786066284699190
1 28
     0.376802189822020     0.252171989942163     0.464312476122372
     0.505415920839629     0.518614042466101     0.779476091924340
     0.479496768539346     0.433307916646083     0.738461521955848
1 29
    -0.925155996484900    -1.740769803283975     0.048843726479144
    -1.717138785872356    -2.610940844270015     0.137923777808107
    -0.095734898312255    -0.020621080228268    -1.327704726462971
1 30
    -0.139844071693563    -1.888201762733785     2.247904034276539
    -1.977782189441949    -3.766261244479012     3.644294175172958
     2.096384781946563     4.823999681207284    -0.409404040607653
1 31
    -0.056119945645783    -0.027609561090292    -0.011402672588665
     0.101868631950809     0.105389389415494     0.009853587504704
    -0.052721319092203    -0.073663181442982    -0.311096423010972
1 32
    -0.137434141379022    -1.833996933819102    -2.036301852292284
    -1.719877270958936    -3.984454424922431    -3.748763287396780
    -2.132902954288467    -4.461072575794227    -0.317518029202853
1 33
    -2.583594774494800    -0.717861305926597    -0.909069166343763
    -1.567674093559591   -14.021501574794726    12.538672206868995
     3.430826429243468    12.116323120586760   -29.964698513663976
1 34
     0.304959722388418     0.101292347033941    -0.021681691487457
    -0.106324707592350     0.220577956383259     0.122003161324537
    -0.082383738657866    -0.049567438493093     1.149486647351515
1 35
    -2.654996942419331     0.619411835777695     2.415217763075479
    -0.811290347012306   -13.935108891835423   -11.042268199889644
    -1.453872382561858   -10.272251529962093   -25.664647968779772
1 36
    -0.058165824543850     1.132015408264090     0.102862263513313
     0.153456696818627     0.060120355114758    -0.066851620424141
    -0.186481590476311    -0.010983924369049     0.133042846889880
1 37
     0.139233526168411     0.348030263151228     0.489641641924878
    -0.213865083165541    -0.057559565214170    -0.232948671644588
     0.198867353795105     0.261143572527960     0.458664458309175
1 38
     0.133852296185985     0.331061909084808    -0.497891160640015
    -0.191850695314090    -0.056131798823386     0.251060764555892
    -0.153677205546727    -0.234752321348242     0.440408794233170
1 39
     0.532797520546626    -1.102555927079074    -0.014216347743388
    -0.662523930556340    -0.018836200343542     0.006380310181371
     0.021181889994780     0.021495663522664     0.201553312931186
1 40
     0.270633610029721    -0.148677707326236     0.261914966733198
     0.120918975121957    -0.132572537846911     0.090222682116933
     0.223359715749112    -0.194148139130843     0.395203519562030
1 41
     0.224074252721885    -0.125956859408195    -0.242078863597605
     0.042783143431860    -0.176111910093844    -0.041243465955815
    -0.136644396541844     0.166757054472760     0.387766212179235
1 42
     0.035714713508913    -0.287643560723817    -0.534503983250674
    -0.189613472325587    -0.502324056785559    -0.573359272616480
     0.045350389505602    -0.003692140388997    -0.223860227043415
1 43
     0.067565472186039    -0.104624684593739     0.017377054542414
     0.026854247551938    -0.087267673437091    -0.011575676528404
    -0.001736298411531    -0.008776429419977    -0.183556470912810
1 44
    -0.087531228282073    -0.303398649655871     0.424330501387398
    -0.242883893796590    -0.471924577425893     0.438801450616198
     0.120622152082413     0.037945332610408    -0.129086281013655
1 45
    -0.090446572567228    -0.093727151816460    -0.060151180371603
    -0.008096520544076     0.854936613397959     0.046613354952262
    -0.032617804186688     0.169179922186177    -0.093664151983221
1 46
     0.036664207112127     0.034245008377592     0.017942522125240
     0.010378913808559    -0.015204677559359     0.013174705714179
    -0.015435146025659    -0.008884030225005     0.040982915861834
1 47
    -0.096547208332363    -0.078433035444566     0.062821885279631
    -0.092776909906424     0.734029103310454    -0.053139547103560
     0.076684845905880    -0.106431835631512    -0.071792683277298
1 48
     0.061740844499489    -0.001941905880494    -0.081621047007409
     0.065667905905952    -0.082619895996101    -0.307966015148602
     0.059443601346082     0.014164791936191    -0.024981143618487
1 49
     0.066098622805781    -0.002096472561723     0.085575592297132
     0.049586469900005    -0.162674291385954     0.314715402110687
    -0.052246379527097     0.018644374255296    -0.027424634312193
1 50
    -0.047334458424016    -0.229813220316330     0.002524264023812
     0.073627704487716     0.307565573327857    -0.001756310094147
     0.012207442502876    -0.001689052581533     0.007623434786491
1 51
     0.002201692536041     0.142966690007142     0.077611941298037
     0.010033945171802    -0.239377926841878    -0.117261933191444
    -0.008515413264888    -0.100626404863994    -0.016030582446101
1 52
    -0.002706903345240     0.107598249477614    -0.068508432301695
     0.003647581299649    -0.211637011908272     0.103114302313040
     0.008606715175420     0.069941507421302     0.011678808965568
1 53
     0.004919045619244     0.053721709682902     0.003908417794639
     0.204316748631863    -0.348266375840986    -0.009056865736401
     0.000610144955411     0.016655502760075    -0.074522657396455
1 54
    -0.033743511367918     0.049295225713219    -0.020550242218143
     0.055655741202667    -0.098779115318197     0.047154417139506
     0.025046067259123    -0.113026822760274     0.001783475393256
1 55
     0.029893533942506    -0.012554457348033     0.000664902556951
    -0.071921480839222     0.081247032971745     0.001418883265678
     0.002569523352394    -0.007611587173222     0.069682463647522
1 56
    -0.018351001558461     0.038249283271655     0.023234272226119
     0.042362440765574    -0.081818346086085    -0.044589855500372
    -0.004634186621485     0.087289419790786     0.015021734632308
1 57
     0.002641104609404    -0.020841174286533    -0.013582627700467
    -0.047830736650623     0.011113696178134     0.032738116999708
    -0.020343702748876    -0.022929712663147     0.042542413466531
1 58
     0.010925425965574     0.022237310653158     0.001018759330662
    -0.003066096145114    -0.008868571927774     0.006986311671637
     0.001019754272285    -0.001943674576535     0.027151089776351
1 59
    -0.031490043697579     0.052850580464433     0.019714861410073
    -0.018384228802641    -0.047044256098764    -0.031343809320511
    -0.004188936025111     0.074348963874710     0.043953224651402
1 60
     0.036932952560922    -0.021992526515085    -0.019961489784840
    -0.001153222305436    -0.011825309356259    -0.009172709955202
    -0.004142944881977     0.005543364922933     0.023416114548202
1 61
     0.043378115978100    -0.028615529248578     0.028363362810937
    -0.012901869741776     0.004990653606570     0.016057835003017
     0.008178185114302    -0.010044761989868     0.025730221359011
1 62
     0.007662306027854     0.000909192920453    -0.007913660138403
    -0.023742147715919    -0.001667532121743     0.004677105683191
     0.007627826881951    -0.007694469010685     0.023205677159985
1 63
    -0.011705124582860     0.020226762812398     0.038418935228877
     0.019380246647073    -0.010208590529792    -0.001241206938406
     0.008668982177821    -0.013920373236820     0.023640236939109
1 64
    -0.003107249172765     0.016075991259955    -0.036512638307450
     0.013583625795930    -0.003930527534502     0.003497638565765
    -0.005437955664098     0.009445991230989     0.027029056896224
1 65
     0.046343614761564    -0.040906434647561    -0.006072500909421
    -0.015996123795542     0.000141529350103     0.002387517719147
     0.004152448680024    -0.000145808289031     0.053359202105295
1 66
     0.075819493853114    -0.041790212386661    -0.060296775932708
    -0.012020330648314    -0.006344254618498     0.015131227096776
     0.020726201580561    -0.006184581602711     0.020218616856627
1 67
     0.005294672751700     0.010292936399842     0.000817170218979
     0.001921305662541     0.009435873024297     0.004596607834860
    -0.003955777466631    -0.002420260696624     0.009894057368165
1 68
     0.059283876334625    -0.032659006564051     0.048405209608375
    -0.008291487312024     0.000064959695150    -0.003883064477982
    -0.031873550591742     0.010949670587891     0.024701171155196
1 69
     0.031470540183330    -0.012176084691053    -0.007293700427543
     0.005584299825034     0.003779104474250     0.008785820764416
     0.006142064693072    -0.004328858035101     0.027130319589201
1 70
    -0.006473194455300     0.009012839995912     0.000484465242702
     0.000808559882594     0.012493836800148     0.002722685317771
    -0.001849557398075     0.002809771998480     0.011298695738324
1 71
     0.030862899891676    -0.009990096895427     0.002672772211900
     0.003391439208001     0.005816032874885    -0.005570010717776
    -0.008927707765337     0.005034002874734     0.023245684132652
1 72
     0.001256972458681     0.006473279486565     0.015361263104671
    -0.001312797241535     0.002687181753926    -0.010751706554886
     0.009497589121890    -0.017966014439295     0.012515006610102
1 73
    -0.003867959699222     0.005126249307889    -0.022984511314171
    -0.002017980148782     0.007331675002242     0.019277068004113
    -0.008335467395697     0.019118020365593     0.013032067846372
1 74
     0.032883129199100     0.020768225748449     0.003694799279971
     0.000046094235225     0.006053047264578    -0.001272306169628
     0.003279653919106    -0.000237882148614     0.008490675165737
1 75
     0.041777194124288     0.010025823667578    -0.012260723972680
     0.013331938660831    -0.003465272837264     0.011794313937998
    -0.008454651062565    -0.026368314830990     0.005343711470304
1 76
     0.033101390129116     0.009385156813090     0.007331480371516
     0.011715226520096     0.000750011269650    -0.016498921735341
     0.007605283610452     0.021417209167694     0.003117641722195
1 77
     0.029398146495148     0.038085661652001     0.000756937717920
    -0.008179922319055    -0.006660927009431     0.004693540756873
     0.001172823529302     0.000103355833793    -0.011884931127968
1 78
     0.048566731441871     0.024741275896208     0.029397685240190
     0.018202574423530     0.001389596955897     0.004199593459672
    -0.022015450197353    -0.021764339521629     0.003959224600521
1 79
    -0.017059420064734    -0.013638670317231     0.000230512761727
    -0.004328033031192     0.007976267734095     0.001381048226229
     0.000531392758464    -0.000227250018878    -0.015767991966440
1 80
     0.035804740524708     0.018599144902866    -0.025642909291427
     0.012516379787353    -0.000505347162423    -0.005581965770706
     0.021456737208607     0.021485849023757     0.001469318724382
1 81
     0.056585695816629     0.061715222890200    -0.015475152618068
     0.018682626899541     0.017437108373808     0.001239968065281
     0.014131724978409    -0.017868943958934    -0.021608000909991
1 82
    -0.000560436590272    -0.009511482392257     0.002289865240644
    -0.001128484126552     0.006854514882033     0.000487770805210
     0.000386336994509     0.002058998255820    -0.031543140442442
1 83
     0.053358540996382     0.053674612650751     0.014578313240499
     0.018927878847888     0.018503834708202    -0.006625409021373
    -0.015593003368152     0.013253909192620    -0.021922631165711
1 84
    -0.001753193671528     0.032407078137799     0.006198125390095
    -0.011264887236230    -0.005412206125779     0.005284015807209
     0.020932758337709    -0.023814419879468    -0.012829004986422
1 85
     0.000466491808792     0.024731297624334    -0.017691976271570
    -0.009244792703104    -0.001474107473410    -0.007868060444535
    -0.019515746658716     0.024571759282103    -0.010936175790825
1 86
    -0.019166049743632    -0.023178316026463    -0.003274326106337
    -0.011191869595807    -0.063637303085271    -0.003656977776367
    -0.001743877606291    -0.002159007880994    -0.002143256911333
1 87
     0.009921213163216     0.014157393002674    -0.027534763901713
     0.035628802017993    -0.001171066146875    -0.024874992451273
    -0.001991197446583    -0.046135419235170    -0.056028043789892
1 88
     0.011083846227827     0.019146535371666     0.032685542573025
     0.029150973112693     0.004555457014635     0.019121920061356
    -0.001052488626300     0.046618387867002    -0.061200983240885
1 89
     0.033299642450500    -0.027065230886416     0.003005973337652
     0.096215737531879     0.004758880002937    -0.002537636570949
    -0.006122734485522    -0.006062352353287     0.001464996912744
1 90
    -0.004198141704656    -0.014421696694154    -0.040164686719485
     0.030157608624016    -0.082197629786095    -0.074613619746588
     0.013914360516642     0.060497469405246     0.019318357287794
1 91
     0.009989426606587     0.021434741901340     0.001426459378350
     0.036349737309934     0.006005827491747    -0.005004306869445
    -0.002204246670908     0.002292951126712    -0.003276425142908
1 92
    -0.010962978654834    -0.038116440943797     0.026967026127700
     0.014339607886194    -0.110417006479608     0.044315515776541
    -0.014555389236759    -0.064092510912026     0.002283566176381
1 93
    -0.056646317476890     0.030429652457649    -0.077736900955788
     0.047964352400800     0.197705446242480    -0.154941271516701
    -0.019683921073356     0.150832220822453    -0.006640072888400
1 94
    -0.003872297677360     0.002871088071682     0.001567438782859
     0.024484938249549     0.071628636263790    -0.014722568770623
    -0.002709571458639    -0.001409170422825    -0.067913290277143
1 95
    -0.055084417757008     0.047743906408576     0.082258344626468
     0.038019461923476     0.208122614832005     0.153464269975528
     0.016930219434836    -0.133115477452704    -0.024633104897827
1 96
     0.054686905563093    -0.055699377608239     0.011455602345707
     0.007083334591991    -0.103311306934313    -0.042609397755490
     0.008480573996989     0.159608551869534    -0.041958858578670
1 97
     0.047886969831570    -0.037881706606472    -0.004234626135469
    -0.005954576875895    -0.074474387588365     0.037833852088997
    -0.020063880277207    -0.078355367510320    -0.017391193151645
1 98
    -0.053064342574881     0.162203150358987    -0.002784374508052
    -0.170017578532762    -0.148776141153837     0.019446099385335
     0.011268965001552    -0.024825016836151     0.106521239744349
1 99
    -0.008709430944748     0.057976968757713    -0.189583167357073
    -0.085627850373801     0.007275619247560    -0.079364511845972
     0.045358389065253    -0.124862102198848    -0.083674092744569
1 100
    -0.003261243764926     0.063156408594653     0.207126503274782
    -0.063316799157176    -0.033651960489292     0.040359689611789
     0.020144803519380    -0.011783743125533    -0.142714118946128
1 101
     0.144562141528852    -0.466576481893392    -0.007437182371713
    -0.216379880473053     0.059242174307887    -0.020422523786754
     0.019368164130793    -0.022710738278308    -0.056698495876573
1 102
    -0.028231802359007    -0.445300301322522     0.140842143126956
     0.168399736280612     0.181750015762902    -0.069685687147859
    -0.583461658714059     0.490355103517230    -0.114260280138576
1 103
     0.025885228915219    -0.030092522759140    -0.000565950931007
    -0.091807603877408     0.091604491031305     0.004948949300132
    -0.006915289929357    -0.000577343466935    -0.037441418307951
1 104
    -0.058192852541599    -0.437322916572008    -0.118650428751732
     0.143721258295111     0.240158999400242     0.100359238501434
     0.725585307167423    -0.591718736830373    -0.165388268049958
1 105
    -0.974204868771965     0.599926543478363    -1.066002034773318
     0.747187148201975    -0.149905695326964     0.065437586078908
    -1.837117822601259     0.247922105866734    -0.451286996134090
1 106
    -0.047345417564009     0.204919446327121     0.000507177180150
    -0.029433219603978    -0.037899183368727     0.018398846355363
    -0.013542101184299     0.000456197107637    -0.265303862766419
1 107
    -1.159724687497710     0.630464558097561     1.041029714217113
     0.861997243550662    -0.156090606464195    -0.044635265622794
     1.770408342923465    -0.144131322582182    -0.421254418718302
2 1
    -0.176936199136543     0.219946734533445    -0.796677439734813
     0.305792564971538     1.646969593728010    -1.108894975440113
     0.611903162833213     0.464589245254818    -4.683239286080362
2 2
    16.210350096362159    -4.961302248602859     1.663647239852182
    -4.961302248602859    68.690881567845196    -4.668847792337079
     1.663647239852182    -4.668847792337079    62.841251174199854
2 3
    -0.102220545886139     0.261199856600407     0.579031226045246
     0.127982386763409     1.824894624619058     0.542277016227815
    -0.444415955216929    -0.020278738752398    -4.808868001731594
2 4
    -0.103628421684996    -0.090281541336244     0.534764261356570
     0.453505719895970    -0.650562443562514    -0.818903153487175
     0.366128368905274    -1.292755393092008     0.479314231579847
2 5
    -5.037570501535569     9.700699615526414    -0.018765876826806
    11.958042640359478   -37.145898213850820    -0.630102833942343
    -0.337865996899463     1.330241227004600    -5.623720526766887
2 6
    -0.192521650622292    -0.054719753359411    -0.471977481865907
     0.218629628416598    -0.254513784990054     0.305959546521228
     0.005342304226582     0.094393772168168     0.025922512991189
2 7
    -1.300184418654015     2.358396542642060    -1.857803157562398
     2.553956795447344    -1.888713630880132     3.793426141318681
    -1.765512972306439     3.398238616463792    -0.320331143137854
2 8
     0.005062788454829     0.030441087928401    -0.052688818472465
    -0.215633760677965     0.119166798625551     0.176226568530250
    -0.118370931920811     0.094226203035405     0.059206987735443
2 9
     0.402480054164038     0.036060251751139    -0.306113943093709
    -1.141025729437129     0.039895786950193     0.086833359810538
     0.107086486348115     0.138974271998850    -0.171798867539269
2 10
     0.454169731552161     0.043120074642264     0.046616805809522
    -0.225143592650840     0.001610354323426     0.038752442601248
     0.201025398042267    -0.278351451215540    -0.245483242518861
2 11
    -0.004682138241909    -0.000791705229101     0.016544763770811
     0.019409379344602    -0.049013010997289    -0.005589160975915
     0.087416859966390    -0.018911338889269    -0.044913720871013
2 12
    -0.392516788978826     0.177112993304379    -0.042664426505157
    -0.364505762999764     0.067362392765865    -0.046336171357710
     0.015136607882206    -0.084599092055875     0.257654074622830
2 13
    -0.074681236020934    -0.017626107648430     0.153842195146725
     0.042130894992048     0.006631784544670    -0.095797787323095
     0.029016576951915     0.017014520648113    -0.120868958540431
2 14
    -0.008104404410334    -0.043501327973844    -0.057903945935731
     0.109666269968512    -0.046528253858707     0.164832183032119
     0.075952147701161    -0.096950177932019    -0.108935044875485
2 15
    -0.245333852178512     0.078089617140992    -0.009712309346564
     0.060856788585798     0.069823470547544    -0.060381538744916
     0.053015301833960    -0.049403639717095     0.028441793140941
2 16
    -0.020322938555195     0.011924984063390    -0.024093450259326
    -0.036283932597417     0.041007838752486     0.040180530345405
    -0.031726889796167    -0.041865624702045     0.024358205209730
2 17
     0.067317873234971     0.017394966095731     0.067069493417506
    -0.014844886562304     0.050769925388343    -0.011833277790744
     0.060741139701892     0.003997790190736     0.017506685233013
2 18
    -0.104113496284823    -0.021892643343712    -0.027556495289333
     0.030553832226762     0.106821903703627    -0.031021719082648
     0.013428476581647    -0.064151417575529    -0.004274563576165
2 19
    -0.164015974218588    -0.033250536385302     0.056018793875861
    -0.017010863257860     0.072222586659259     0.020433468958772
     0.035138879065235     0.020491016947147    -0.029878024565447
2 20
     0.013378288941682     0.014010650802767    -0.033424150854640
    -0.011877143207701     0.095297558541085     0.039908671199935
    -0.010759471026187    -0.000180329579973     0.018391784403026
2 21
    -0.028621700596293    -0.028288744776763    -0.164438580401905
    -0.212288028651979     0.044644238531794    -0.179441481556861
    -0.218662370172869    -0.032366683766527    -0.072037550198892
2 22
    -0.088617928382512    -0.049598021289549     0.192120222959656
    -0.183217840908719     0.029777166738145     0.176452370962281
     0.194254077398453     0.043279391585432    -0.097308038664985
2 23
    -0.033584994760660     0.027959633897807     0.002345003565625
    -0.168994237872310     0.066075665206919     0.034074379998195
     0.029206944595163    -0.000090506225070    -0.055959238700332
2 24
     0.469995772422843    -0.379299549353006    -0.022524442064316
     0.324012566324774    -0.256968602097524     0.029137220417875
    -0.076960929819027    -0.004718176154945     0.297953980232690
2 25
    -0.107752427622988     0.026218335408585    -0.105798515856892
    -0.172078215129473    -0.026959120147364    -0.043211698208030
     0.102530337870062    -0.017388425037637    -0.097288399301010
2 26
    -0.034495019274879     0.052718560704173     0.132886057756175
    -0.150552451718089    -0.017649737970371     0.015167037043845
    -0.088481823795675     0.059401591548572    -0.067121177717682
2 27
    -1.261290687880807    -1.676304164336486    -0.074038695418086
    -1.435095566514480    -1.709878300242772    -0.019050528321146
    -0.154975261711606    -0.265381430635932    -1.376554641176726
2 28
     0.380365140144435     0.258152529265098    -0.667864565628766
     0.391930196643762     0.342705378230365    -0.882436833703165
    -0.497891007477971    -0.528437621182953     0.929555483374336
2 29
     0.243027607707003     0.153319147122508     0.574363606112997
     0.325603127183204     0.281261406232986     0.762149359510778
     0.456167659937415     0.604560875117799     0.831858063247037
2 30
    -0.410909143286235    -1.707573777346928    -2.088905542023943
    -1.640192044715512    -3.023939432730922    -2.813317194112737
    -1.728429068407234    -3.899314376942895    -0.647004489802679
2 31
    -0.508363239732437    -1.926031852813646     2.033208340056512
    -1.860251982393255    -3.598144312578100     3.326026970182113
     1.989810772493242     4.217329331112982    -0.478324467988461
2 32
    -0.035398036990478    -0.057694246030038     0.041343622973723
     0.141287742904417     0.087900078109947     0.080471556216862
     0.101398803823156     0.113907795574934    -0.079220323821134
2 33
    -3.437646419229770    -0.960462225463973     0.415018492394636
    -2.505049908895809   -11.586433317482493    -6.346186981688155
    -4.293880511641115    -8.597458476021332   -23.059005485835989
2 34
    -3.286776511506393    -1.000704348183972     0.304478486428632
    -2.225013589028412   -13.917134145570577     7.969430584403398
     3.955602908719494     9.694360295197923   -24.193571575405393
2 35
     0.322086634364886     0.131776191952669     0.008658304742744
    -0.152346635918798     0.229499515163890     0.078147966964908
    -0.081485396438236    -0.180140822649107     0.740899572613237
2 36
     0.193624118535784     0.316112491194215    -0.621093557235957
    -0.272521412597714    -0.018941103198598     0.335542266158811
    -0.198104592201730    -0.275476002389725     0.470166165833984
2 37
     0.198593813709120     1.428220069602113    -0.028819703162422
    -0.557818874565327     0.504234298179102     0.015510546942428
     0.173374041013283     0.005227928450416     0.004987297383446
2 38
     0.220532900292787     0.335071374020576     0.645036235357346
    -0.202635810345729    -0.046208897698826    -0.274537683778820
     0.200749229362438     0.263162110949692     0.479422382864992
2 39
     0.357364684365823    -0.131870876740730    -0.517422094462820