  83   83
1 1
    16.750263743175793    -0.701633595979213     1.885209266480214
    -0.701633595979213    46.175466769461643    -0.866731124250856
     1.885209266480214    -0.866731124250856    58.133612685996262
1 2
     0.001656188314574    -0.003313715945737     0.007260806442857
    -0.001939903546332    -0.003067331300433    -0.010333119191175
    -0.003695681350894     0.001909496261078    -0.029960812524674
1 3
     0.001340179557050    -0.001953346686908    -0.003596357709644
    -0.004175479689698    -0.003851066470571     0.001780746779214
     0.007135167097004    -0.010357079493332    -0.029639063604073
1 4
     0.000143922997820     0.001811161807605     0.013610757082006
    -0.002828201901616     0.000731034720680     0.005022011640778
    -0.014112543901710    -0.005671693274720     0.028699485448177
1 5
     0.000088290982292     0.001135765221174    -0.004293658698218
     0.000858229139614    -0.002338059853988     0.008832208057512
    -0.002668280800234     0.009689678690969    -0.048388497914019
1 6
    -4.838494546128432     4.138022392696392    -1.278542630320017
     6.321238284970363   -16.115181116126951     2.621414377739629
    -0.844208392550802     2.790104729061849    -9.022856905633601
1 7
     0.052363166758713    -0.273188978641507    -0.536789574632396
    -0.065901148903697     1.378624580731646    -1.624811478218191
     1.236230377136228    -1.556389358804174    -3.544576146660343
1 8
     0.085763840457282     0.050287067334917    -0.104556621299688
     0.083999551822403     0.038388950225743    -0.053017117461266
    -0.232598791133560     0.057619179595664    -0.265234660686978
1 9
    -0.190903184725292     0.377900867921612    -0.237224879188528
     0.017461412363074    -0.346416628213800     0.597594353854768
    -0.469843519527827     0.438940606042581    -0.863671840658966
1 10
     0.003626669406176    -0.000118127764091    -0.006609780263337
    -0.020619302467123    -0.010393866736198     0.009440897593773
     0.000689695552665     0.000007046033754    -0.001342301331944
1 11
    -0.021106606849565    -0.012354069706995     0.028906945230002
    -0.060028778896300     0.007040245088587    -0.119103218898009
     0.100372671838595    -0.069705178082304     0.177374272362493
1 12
     0.001411378731604    -0.009340522578026    -0.028578887250843
    -0.001908908004654    -0.016787358302611     0.037623408631558
     0.022185939867993     0.022873504644040    -0.041501048209626
1 13
    -0.000515053264953     0.000058847737176     0.000585059905031
     0.000419880872976    -0.001778431341517    -0.000196706635024
     0.000382837239289    -0.000288885247827     0.001453243653489
1 14
    -0.074468665129104     0.099945198920499    -1.156236795222269
     0.298262255207141    -0.461821439021230     3.236048333659438
    -1.715037940415316     2.368062512953649    -1.880037630591950
1 15
    -0.020718668548153    -0.011454460870246     0.009522195252254
     0.016745034133875    -0.020465302918835    -0.052688527211270
     0.053100430824277    -0.005577798287956    -0.088257751017773
1 16
     0.000645680109009    -0.000016060149022     0.000133527252534
     0.000413704790349     0.000213961970335     0.000083710771517
    -0.000045736433144    -0.000009895713132    -0.000030397233176
1 17
     0.127844502917652     0.263277792115829    -0.133411030330827
    -0.332530231881367     0.122652000099263    -0.217778817302711
     0.207830830383404     0.149145462685560    -0.513597140096835
1 18
    -1.654204707035276     1.930852562804661     0.984892397805631
     2.331302042669368    -2.694306056036225    -1.256882191569044
     0.680224574417851    -0.541166192016266     1.702452818537116
1 19
    -0.000218838116779     0.000553190635072     0.001168273427037
     0.001256789193873     0.001676526780446    -0.000026994400485
    -0.007296134420104     0.006791976609293     0.013455920953562
1 20
    -0.006504865253260     0.006935644088769    -0.004454956761351
     0.006528140514766    -0.006604964551758     0.002798866768101
    -0.013024961904316     0.025446199949440    -0.034634700112319
1 21
    -0.004652354645901     0.249418361214837     0.278301330108996
    -0.428936007366692    -0.108768133986578    -0.478852463033551
     0.553797483647828    -0.002143689526213    -0.129596310065412
1 22
    -0.001478516000660     0.001300649479601    -0.001732060974231
     0.001905248279762     0.000432632835517     0.001807021191284
    -0.003012167068194     0.000484656695194     0.004131488064477
1 23
    -0.000990597495735     0.000841735378287    -0.000748228452596
     0.000380010727393    -0.000357897109204     0.000175216952607
    -0.000616537715665     0.000558530091369    -0.005497209070293
1 24
     0.130719024126380    -0.026355870076096    -0.140557458215522
    -0.110559719474892     0.149422329893892     0.283224478956850
     0.164375410120946    -0.091392489585986    -0.031490205755965
1 25
     0.000574087512921     0.000063391845619     0.001177014562435
     0.002963084889321     0.003170945226032    -0.001375592244116
    -0.000072229704809     0.000012708933628     0.000256541493950
1 26
    -0.029749227642158     0.021016097194621    -0.107313762489643
     0.008524849404778    -0.003106617152612     0.073733368603956
    -0.091473126002036     0.052779731665080    -0.210509399203946
1 27
     0.028073509949779    -0.015870955204099    -0.015742731199387
    -0.000538199599625     0.004112472145996    -0.006689488728368
    -0.009267110446929     0.014342578024442    -0.038974590953142
1 28
     0.000587714599222    -0.000185478952710     0.000582747172048
     0.001673638260987     0.002199807357414    -0.000749474645584
    -0.000025625842040    -0.000017828020513     0.000060682316560
1 29
    -0.009075867371208    -0.001572149387843    -0.039883272328396
     0.011201372523943     0.005125247325415     0.011941106324565
    -0.039696696984312     0.012587043645699    -0.009616271875590
1 30
    -0.006977204888241     0.005535571911069     0.022072593433382
     0.001274485164402     0.001202511119959    -0.008710609498575
    -0.003740322675731    -0.003351888717918    -0.022314971715773
1 31
    -0.000099426186496    -0.000093224498342    -0.000180666048344
     0.000111711632968     0.000586048706795    -0.000123508121074
     0.000162081280541     0.000023070078259     0.000088458642348
1 32
     0.193403864776753    -0.054662536553319     0.039972117193782
    -0.238446118026298     0.110302008986057     0.033563731201555
     0.165989218057242     0.022904888024095     0.095913809636049
1 33
    -0.016850018580795    -0.008682780744117     0.008204760461329
     0.011603350295754     0.003048101039923    -0.013361510771228
     0.009862850988011     0.012034227933877    -0.012486303079028
1 34
     0.000260898190520    -0.000151381886812    -0.000026192330981
    -0.000078379771151     0.000385593695254    -0.000057681678313
     0.000041325698594    -0.000027650636097    -0.000087922498009
1 35
    -0.034453433043991    -0.053869620393456    -0.060121319445076
     0.051845181174541    -0.050126717214545     0.026959425610820
    -0.063528445914172    -0.017692271923501    -0.059827588534683
1 36
    -0.010305874025176    -0.054600566574020     0.218747777301771
     0.173083422167561     0.056529630632587    -0.119685505055231
    -0.092589864198756     0.066010959855624     0.119930398263754
1 37
    -0.000005530390928    -0.000142591861477     0.000249121712629
     0.000341920779377     0.000974899132600    -0.000074742045741
    -0.000092247462384    -0.000013175152277    -0.000003970745077
1 38
    -0.001757455286595     0.004462722726061    -0.000101528325381
    -0.001363585045745    -0.005625813552373    -0.005910951347377
    -0.009373524049718     0.005956894696886    -0.007231108682164
1 39
     0.002446991423222     0.032731117430429    -0.074141531192681
    -0.012020250423283    -0.064851026744870    -0.003253183245733
    -0.071848186419748    -0.018785143916841     0.051887164163172
1 40
    -0.000031969992307    -0.000342384931108    -0.000158942684382
     0.000169192860188     0.000220851946753    -0.000398121614514
    -0.000519449751091     0.000377987757332     0.000453711676083
1 41
     0.000032124753477    -0.001679143523362     0.000462688244808
     0.002076434380323    -0.002263599199933     0.003260879258817
     0.001370187902838    -0.002983519251265     0.000862840066242
1 42
    -0.034931783690695     0.007739776903865     0.048047775458919
     0.008025082967385     0.006842394017018     0.008823562382803
     0.034448532862659    -0.004003311613646    -0.033709876252639
1 43
     0.000565485071356    -0.000193162467629     0.000090041293356
     0.000085165837476     0.001624518792376    -0.000034841019359
     0.000054084013484    -0.000026475114711    -0.000013431696348
1 44
    -0.034027610705333     0.007912796950548    -0.033727161233787
     0.007700053927518     0.006622379236153     0.003937658494222
    -0.046977091677764    -0.008855622599311    -0.032988513441391
1 45
    -0.121025341475392    -0.025408245832623     0.132009088574429
    -0.115839519102180     0.031129522235040     0.091308051609519
     0.158628623864983     0.022937297028629    -0.107429312945242
1 46
     0.000370100941146    -0.000119207973009     0.000266836763435
    -0.000455128622218     0.001342386564364     0.000186582585227
    -0.000139253696354    -0.000018050492276     0.000002276474564
1 47
    -0.024179433114177    -0.006894795662141    -0.055111448242513
    -0.012321585667787    -0.003901943604503    -0.002993154323392
    -0.042498409377032    -0.035291715943708    -0.040519166306315
1 48
    -0.003434368812370    -0.000647504895726     0.011149389283188
     0.005389924683430    -0.003025974702563    -0.001198758294868
    -0.002389120626242     0.005249028787940    -0.007169961285394
1 49
     0.000085419879852    -0.000109815613295     0.000080238610057
    -0.000281398970093     0.000135581407531     0.000047033249523
     0.000117218136213     0.000001439514450    -0.000123543556940
1 50
    -0.044193712672797     0.124587236125348     0.112127213789890
    -0.102563928426793     0.089784415152641    -0.019390584144524
    -0.248445535252479     0.012801824254861     0.119664294814858
1 51
    -0.006475975093892    -0.006194108098528     0.004825129047702
     0.006271562493963    -0.006567704674108    -0.014319608892015
    -0.011740977110116     0.009697467331318     0.024142760127214
1 52
     0.000293053590444    -0.000031125584779     0.000175035262152
    -0.000548034941079    -0.000197740538596     0.000048427253863
     0.000100240036732    -0.000018610233335     0.000097707498718
1 53
    -0.081092852150193    -0.209294401313552     0.369143092487627
    -0.050426760201646     0.020441735365457     0.699801281923199
     0.786036221015275     0.087989100223960     0.427904609887769
1 54
     0.285616933477074    -0.019133865785618    -0.085264790032561
     0.164757732768897     0.018699626326946    -0.143962085037676
     0.001254802247907    -0.052101711886993     0.095715768019803
1 55
     0.000343973651094    -0.000154739826828     0.000157638690986
    -0.000083935327272     0.001104959262533     0.000028378997405
    -0.000145890196007    -0.000013520811712     0.000210540190904
1 56
    -0.005299712469231    -0.007115525979161    -0.000172908010698
    -0.002526082912843    -0.000963423055002     0.005097853435544
    -0.020315678153373    -0.011907039498999    -0.022196348163571
1 57
    -0.410967621653946    -0.804758860203884     0.017446320327157
    -0.138657561828745    -0.482001707559782    -0.158371954446016
    -0.159511741365461     0.005411330638431    -1.435586151504946
1 58
     0.000428354996272    -0.000091551619560    -0.001296982116505
    -0.001500350038730     0.000672042484540    -0.002175675889377
    -0.003014310888013    -0.001507266063096     0.008014801925522
1 59
     0.002709502832496    -0.003937044850515    -0.023620578921938
     0.008714106596023     0.002747689376220     0.000947167344675
     0.002792077942270    -0.023522535837962    -0.019232647465462
1 60
    -0.010500280803031    -0.025271355120622     0.071607206494515
    -0.012437064420393    -0.021506579124547     0.076985217126669
     0.094769112907753     0.087872753343291    -0.209533953902985
1 61
    -0.000122802006305    -0.000044473100011    -0.000213311602190
    -0.001586053632299     0.000073884120916    -0.000470752945991
     0.000213917734812    -0.000019879497956     0.000049956222061
1 62
     0.178178608733261     0.015618545628737    -0.125517682348458
     0.099603274736092     0.101660453409308    -0.140107346666531
     0.307056510068024     0.073759263230459    -0.031963632657089
1 63
     0.119028698179582    -0.253027379554556    -0.006785606106194
    -0.439060588486394    -0.280558145710293    -0.104885494595153
    -0.087393608107876    -0.058354676488345     0.826704682123739
1 64
    -0.000045137065756    -0.000013018982605    -0.000296532101304
    -0.000327032511914    -0.000395621462081     0.000126876655609
    -0.000250553940184    -0.000044317908336     0.000033768689876
1 65
     0.196421821884416    -0.281101079327953    -0.057984563431212
     0.017556737812663     0.043780452601568     0.308330747447548
     0.295750367602894     0.103284149721316    -0.307532443209840
1 66
    -0.003489222555795    -0.006169142898301     0.021806413160433
    -0.006258369640888    -0.008968092675928     0.018560768052178
     0.001570591680911     0.004884363541739    -0.034319949385861
1 67
     0.001168032576280    -0.000291715215899     0.005249639779162
     0.000300004490400    -0.000798621083963     0.008603551784249
     0.000766675909957    -0.000679948566198     0.013249856137358
1 68
    -1.717848640274057    -1.944569809679050    -0.376406660791729
    -2.345513990152117    -2.630465449797988    -0.784152732394844
    -1.005640462398538    -1.238811666814212     1.701968053144083
1 69
     0.001464477627953    -0.006531131069146    -0.013272107366113
    -0.008295933230188    -0.019037754172570    -0.018292885531677
     0.000555149931125    -0.022863850113153     0.059666098335578
1 70
     0.000255698043737    -0.000067550308959     0.001150480030333
    -0.000835650416085     0.000016402113448     0.000610723830008
    -0.000937607702326     0.001398742029702     0.002323138217837
1 71
    -4.146376841442811    -2.743236538832422    -2.570800543503521
    -4.261998613527543   -14.420056094027911    -5.278015824535747
    -0.848289105719906    -5.808682591465028   -13.468743097136707
1 72
    -0.117404229026113    -0.133075446184503     0.780688051459232
    -0.331557719608821    -0.416212333758763     2.814661220579862
     1.809847213427971     2.919283149591843    -1.878836826528727
1 73
     0.000052327244983     0.000008764599183    -0.000838636943126
    -0.001823396001969    -0.001512479372999     0.000531711628710
    -0.000373877764422    -0.000281262187066     0.001468978197589
1 74
    -0.015745583256576    -0.004094731885396     0.031628657532066
    -0.012700189598374    -0.001638862906813    -0.002724068450622
     0.011326347116658     0.045976926342774    -0.040975208278529
1 75
    -4.805685418582889    -0.189396302626450     1.148891187909879
    -0.604773768716519   -10.073471139278240     3.209420325206514
    -0.657711436858970     3.345257626983897   -27.016242486148258
1 76
     0.005781426297549     0.000092181545157     0.002034880498297
     0.018467232987924     0.012409524590326    -0.007638660666259
     0.002154116794585    -0.000107071248164     0.009712545700395
1 77
    -0.026261641789752     0.002015052931883    -0.012741232210712
    -0.000156342515748    -0.014830945922241     0.020782027023864
     0.015928913831031     0.018543995670950     0.195969533336895
1 78
     0.129729917248849     0.040419124054139    -0.184451740889654
     0.006687921551239    -0.004632553371302     0.152386707435889
    -0.116898688387617    -0.002481858790540    -0.265714757732909
1 79
    -0.000082892920022     0.000129883999149     0.001517281752010
     0.000851562318156    -0.003679555373607     0.000508347369288
     0.000213956623178     0.000010524693054    -0.000245928675187
1 80
     0.168907670811142     0.516612222662427     0.438373238051901
     0.308679845140380     1.261121288415193    -1.938546147351434
    -1.188410641338531    -1.229361761839378    -3.542556013530160
1 81
     0.191981033851938     0.009680542036289     0.035098853850836
     0.157202191827355    -0.348582595756253    -0.362199162606275
     0.072752956168327    -0.356316856715555     0.427899876390525
1 82
     0.010285522234472     0.000039251212744    -0.003931995063728
     0.001789092573661     0.016881511180013     0.000948949625300
    -0.001892540284928    -0.000017628911701     0.000930537937631
1 83
    -0.142160125751996    -0.008450323712473     0.752814277103374
     0.278316088544660    -1.018481172009828    -0.557695449679217
    -0.553933930930637    -0.755428560315417     1.140634693613195
2 1
     0.001656188314574    -0.001939903546332    -0.003695681350894
    -0.003313715945737    -0.003067331300433     0.001909496261078
     0.007260806442857    -0.010333119191175    -0.029960812524674
2 2
    16.394855100630060    -1.627467726584944     2.159810149328950
    -1.627467726584944    44.270030593479525    -2.907798605603225
     2.159810149328950    -2.907798605603225    54.282327376829656
2 3
     0.001639953226581    -0.003674828439919     0.006378367384129
    -0.003544154862334    -0.000962516252372    -0.016690728599041
    -0.005375964455543     0.007307123079834    -0.047063249849674
2 4
    -5.009350579337510     4.331055822872794    -1.175997590205677
     6.263239315592262   -16.239374710389175     2.590272225324357
    -0.498166054816385     2.497619913526880    -7.999405550565362
2 5
     0.000950470518697     0.000276870775316     0.005955296425808
    -0.003884573423638     0.004202361349726    -0.003225589978029
    -0.015746327277623     0.006607631277910     0.016693321120682
2 6
     0.000097108580535     0.001117539973400    -0.004299574408217
     0.000630043244756    -0.001551992737094     0.009024593163218
    -0.002840783959015     0.009467511201933    -0.048860349211775
2 7
     0.087926730874382     0.050458816620477    -0.099480410109842
     0.087212317016807     0.031474306449574    -0.038306090783071
    -0.235750894056765     0.052660951238206    -0.284706542474527
2 8
     0.000628600533999    -0.000078656258075     0.000035086334638
    -0.000057845970945     0.000502749039580     0.000020027547341
    -0.000024316359764    -0.000069206245228     0.000115058474108
2 9
    -0.020081769599427    -0.011592925802192     0.025722776999762
    -0.060135083967509     0.007589620826397    -0.120094665215270
     0.100583415779854    -0.068092493921701     0.175580258118734
2 10
     0.113204400649547    -0.038096632709228    -0.262642349826178
    -0.309076255368440    -0.034275564575699     0.603980083016686
    -0.059851165271364     0.314167588353166    -0.758990088381527
2 11
     0.000475659101835    -0.000017993108224    -0.000032893558539
     0.000012463985428     0.000381821063478     0.000050599757709
    -0.000037876194513     0.000029426103248     0.000239765145916
2 12
    -0.048235007298536     0.199846621246937    -1.193713321528503
     0.292446689169872    -0.448471099478445     3.098931608286243
    -1.679812070125056     2.235294942632615    -1.732776915116873
2 13
     0.013920240831076     0.008660305983073    -0.088539496764778
     0.026146868420622    -0.024429330805643     0.157649739559349
     0.059300461135033    -0.032761008400622     0.095977041590292
2 14
     0.001140667039820    -0.000762379834366    -0.000014216472914
     0.000401405112607    -0.000128236723315    -0.000292062209644
    -0.000122517324583     0.000167191350008     0.001495038855739
2 15
     0.159609462676409     0.244488968860770    -0.079175257894883
    -0.355651598965780     0.115165505826443    -0.239104761054304
     0.212606437454150     0.163576693007828    -0.511821982212622
2 16
    -0.020406641079796     0.003007738745680     0.050032393666327
     0.025950589389293    -0.012343641758744    -0.098231114462136
     0.003199469570328     0.006277956889689    -0.079475175861520
2 17
     0.000518948822919    -0.000004367566209    -0.000032214835182
     0.000101551138082     0.000665109594778     0.000076329822765
     0.000044699086484    -0.000004035636765    -0.000013519740931
2 18
    -0.005826767807659     0.006759061932056    -0.004375322967874
     0.006503468549269    -0.005692984153079     0.002985390010259
    -0.013155463140141     0.025339886367450    -0.034515375454027
2 19
    -1.889575585480786     2.289095926872250     0.786502298127223
     2.803572697363744    -3.001928083561682    -1.278746404461153
     0.716555354023806    -0.676422453002560     1.619052095592292
2 20
    -0.000123637917476     0.000551856575843     0.000536633526260
     0.000265728272293     0.000661813948957    -0.000184094311743
    -0.006271960840738     0.006436218148292     0.009181042570904
2 21
    -0.000810880137926     0.000713500989206    -0.000694222712578
     0.000184872516356    -0.000367757060884     0.000191586359503
    -0.000697383724574     0.000644408546895    -0.005503863860642
2 22
     0.213825950018575     0.176413734095569     0.339512394551033
    -0.374648933964522    -0.144855087053555    -0.495162521772887
     0.552371673158722    -0.034952982210174    -0.090924568107994
2 23
    -0.000788490113341     0.001261110056613    -0.002865125317350
     0.001035572673581    -0.000246275442772     0.002253637903577
    -0.000189878306818    -0.000382526891490     0.001187775702069
2 24
    -0.030322420636466     0.023086501483614    -0.107819135552853
     0.008798210017072    -0.001987174874721     0.070343571227232
    -0.093600131632356     0.053558626951823    -0.204655489337678
2 25
     0.126415010254630    -0.076106743925581    -0.232397659054026
    -0.176722254708486     0.173041358284370     0.426203789586068
     0.045807762736382    -0.036826894774510     0.075746040078797
2 26
     0.000834147883144    -0.000039775567109     0.000052465307171
     0.000069162881890     0.000798601431668     0.000023427710026
     0.000068235548343     0.000078287916177     0.000082782095746
2 27
    -0.009768065822849    -0.001565980439091    -0.041103708733020
     0.011342559294631     0.005702104937575     0.012105336934173
    -0.040734186697860     0.012543329312447    -0.010261609274969
2 28
     0.017006628623189    -0.019337432745246    -0.010215636919519
     0.062181864997996     0.011649892048538    -0.037870284128668
     0.046376726594800     0.029154986611131    -0.042599963160686
2 29
     0.000515040514818     0.000016312771379    -0.000052121387056
     0.000078230729850     0.000523965950093    -0.000010337453350
     0.000022297621312    -0.000079299842789    -0.000033829193195
2 30
     0.211085620923409    -0.078408790740969     0.033881673372794
    -0.190259719723845     0.099749295414476     0.069172109065942
     0.178510528719694     0.046915560811741     0.096208419994315
2 31
    -0.002788060520324     0.005640684863203     0.014341644477420
     0.008815004043838    -0.002171421377977    -0.009321196518754
     0.021932927053103    -0.008930698074955    -0.034174014963777
2 32
    -0.000101940544343    -0.000267022737537     0.000035981398859
    -0.000262276444588    -0.000012613348964    -0.000034115667547
     0.000225310924060    -0.000005548307672     0.000086716938652
2 33
    -0.022033183547555    -0.060059587962093    -0.055196738998015
     0.048561752119815    -0.046338841079502     0.027612885388825
    -0.052385190336857    -0.018359604276885    -0.053434266532512
2 34
    -0.011103791013410    -0.004751445239353     0.002416554306898
     0.016908497043277     0.002554561053407    -0.012462671727420
     0.024654303083441     0.015015906279069    -0.016359342546396
2 35
     0.000519245216739     0.000813327564279     0.000052746716958
     0.000045251304081     0.000814966176241     0.000047511606176
    -0.000153972211483    -0.000037730176202    -0.000057808592688
2 36
    -0.001264058234175     0.004359787129281    -0.000193081384333
    -0.001233286075838    -0.004828224882542    -0.005677167093478
    -0.009707939021784     0.005834193305437    -0.007196635452683
2 37
    -0.004493399616058    -0.052241834791465     0.189905555323468
     0.187559520026771     0.024248434090592    -0.117874058091236
    -0.052531264773688     0.093117015384886     0.106561101857165
2 38
     0.000250698686366    -0.000033222107606     0.000016359165503
     0.000051728365469     0.000415920203325     0.000036669033658
     0.000027223165941    -0.000012692251768     0.000042810759257
2 39
     0.000136972471966    -0.001616964837824     0.000441948811281
     0.002249559878104    -0.002198159650313     0.003176009617312
     0.001383604100566    -0.002923515753460     0.000948995739754
2 40
     0.016261922537121     0.028872505915474    -0.085900108762061
     0.042501223553119    -0.053215689721434     0.003022250070115
    -0.097894368250187    -0.016043817824963     0.036316767759854
2 41
     0.000191071152334    -0.000167040734821    -0.000262236845406
     0.000250375855878     0.000105308245336    -0.000452087968268
    -0.000521238258660     0.000318811110213     0.000690392525536
2 42
    -0.037545251070858     0.007335791522525    -0.035910134435643
     0.007376308537131     0.006231090076484     0.002807560873215
    -0.045391160554882    -0.008374892971511    -0.029725213347890
2 43
    -0.036903890048261     0.011574041227773     0.048615724429360
     0.003139355532127    -0.001120794547309     0.012337837728675
     0.012660650408522    -0.003657747657198    -0.014588446366770
2 44
     0.000838690979244    -0.000093476788759     0.000028704871557
    -0.000185924803497     0.000942024138393     0.000070259495598
     0.000041943834843     0.000071767040405    -0.000041837902382
2 45
    -0.024649299245804    -0.006715426002346    -0.055974672770742
    -0.011733416668759    -0.003263822617952    -0.002476000954495
    -0.043625674078144    -0.035167889355863    -0.039856254936860
2 46
    -0.116107931524479    -0.025582671753457     0.127730968799683
    -0.086042366306070     0.035820592320374     0.074409544031491
     0.108951617421146     0.019167240026773    -0.082683835406029
2 47
     0.000577548818338    -0.000066096021461     0.000012523905246
    -0.000066814521314     0.000635752285745     0.000016541969532
     0.000030643097474    -0.000011180801309    -0.000038706984170
2 48
    -0.007911015820299     0.123849668761832     0.122277103493059
    -0.076838772948532     0.087255902021214    -0.012347430903085
    -0.249078748777932     0.013609674638163     0.105081794461163
2 49
    -0.002719165875142    -0.000174970239302     0.010783954142794
     0.006575934908072    -0.003221179172636    -0.001761224169072
    -0.001864067689347     0.006694574072016    -0.006905764889380
2 50
     0.000250803863246    -0.000283387564489     0.000004312218799
     0.000058571946876    -0.000188264395230     0.000054175085532
     0.000046534429323    -0.000035725841309    -0.000077451581315
2 51
    -0.135520654468608    -0.238925920447526     0.329364983201010
    -0.084561232860443    -0.010276095528821     0.664168647103006
     0.729967746363146     0.052967518692705     0.388620754777583
2 52
    -0.007571262831985    -0.005557757828298     0.007965814774169
     0.003909297775045    -0.005024658384339    -0.007327497726986
    -0.002676308708492     0.017450141312893     0.015347045708875
2 53
    -0.000529377281708     0.000163585892466     0.000062155828642
    -0.000510490233387     0.000414179331046     0.000032549909390
     0.000162485369532     0.000138811054923     0.000158975919563
2 54
    -0.004948757684245    -0.007166880562277    -0.000016521387727
    -0.002367048528315    -0.000498177846844     0.005157897383962
    -0.020859588446614    -0.012335023479331    -0.022359832760872
2 55
     0.321053245395383    -0.019697163689404    -0.097983486217834
     0.148954304095120    -0.005579466242593    -0.159853799045731
     0.066135238852026    -0.007208824223213     0.079637777054759
2 56
     0.000421072479729    -0.000074631000596    -0.000053038657048
    -0.000136457733729     0.000417918066443    -0.000098741573837
    -0.000032696391403    -0.000023355425198     0.000152886357844
2 57
     0.003047528734592    -0.004053966518534    -0.023477508789561
     0.008587643054533     0.003196454189907     0.000564624629539
     0.001886911583958    -0.024399465340910    -0.020521674779742
2 58
    -0.469992394311089    -0.804460588646465     0.156603498058689
    -0.046787416835114    -0.329297652689582    -0.116494092158280
    -0.330899542825913    -0.220325354216208    -1.470134035442640
2 59
     0.000633322810957    -0.000032760989234    -0.001452700137506
     0.000573855766585     0.000713131056731    -0.003236841028554
    -0.003087084046128    -0.001684583752668     0.008386911148302
2 60
     0.185772994014035     0.023017496679273    -0.108214715483888
     0.130523013669365     0.112408494969839    -0.117075725781875
     0.330413916126543     0.085091842540112    -0.006603221566091
2 61
    -0.012152186283793    -0.026003684944923     0.061551608617104
     0.003555706297494    -0.007764206429508     0.037715082662867
     0.077102815015785     0.082106084462427    -0.157730129280114
2 62
     0.000775134851033    -0.000049382835851    -0.000004698975943
    -0.000198351321887     0.000866236425689    -0.000074105062543
     0.000016689500467    -0.000019561006533     0.000009031530729
2 63
     0.188978319485275    -0.285346362123901    -0.058753590843832