 112  112
1 1
    16.751155685144667    -0.693723658118621     1.884991120598018
    -0.693723658118621    46.183483648773844    -0.851305910635077
     1.884991120598018    -0.851305910635077    58.154283131990397
1 2
     0.002231931081954    -0.003308822639968     0.006959817242018
    -0.002132207519126    -0.002825623764124    -0.009778240957713
    -0.003198579968408     0.002593120619403    -0.030468453222814
1 3
    -0.000000000000000    -0.000000000000000     0.000000000000000
     0.000000000000000    -0.000000000000000    -0.000000000000000
    -0.000000000000000     0.000000000000000     0.000000000000000
1 4
     0.002231931081954    -0.002132207519126    -0.003198579968408
    -0.003308822639968    -0.002825623764124     0.002593120619403
     0.006959817242018    -0.009778240957713    -0.030468453222814
1 5
     0.000467736355226     0.001790303538831     0.014015436067153
    -0.003334702813201     0.002011168654960     0.005657272543126
    -0.014125834143069    -0.005389775167836     0.028058648869373
1 6
     0.000251478628973     0.000016886933146    -0.000158878025929
    -0.000174238898124     0.000364549615147     0.000261793658101
    -0.000103824464677     0.000225525963529    -0.000739575782422
1 7
     0.000000000000000    -0.000000000000000    -0.000000000000000
     0.000000000000000    -0.000000000000000    -0.000000000000000
    -0.000000000000000    -0.000000000000000     0.000000000000000
1 8
    -4.838870982330552     4.138664280738552    -1.278394316536037
     6.320842888866636   -16.113665327555402     2.622170696405994
    -0.844881634807669     2.792338130130639    -9.023825599496821
1 9
     0.052187019157834    -0.273392865664920    -0.536834792365776
    -0.066189764557011     1.378880677397947    -1.623775918762184
     1.236358609435970    -1.555520537930996    -3.544619708470047
1 10
     0.000417353469955     0.000014916982363     0.000126952134615
     0.000000415405843     0.000522171148811     0.000217425004599
     0.000195143549162     0.000142211946849    -0.000322459198668
1 11
    -0.000000000000000    -0.000000000000000    -0.000000000000000
     0.000000000000000    -0.000000000000000    -0.000000000000000
    -0.000000000000000     0.000000000000000     0.000000000000000
1 12
     0.086474004305441     0.050017312720657    -0.103905014031497
     0.083940467959351     0.039452220495694    -0.052758060421742
    -0.232630814695465     0.057727260653593    -0.266367227414019
1 13
    -0.191112015013393     0.378035716342795    -0.237078377086787
     0.017079885213487    -0.346120372015730     0.598185501856564
    -0.470001684121062     0.439325358240651    -0.863852259033506
1 14
     0.000500705044569    -0.000012774005436     0.000120345787722
    -0.000020565910397     0.000502727130583     0.000362744917938
     0.000146739386286     0.000196291007504    -0.000245859924442
1 15
     0.000000000000000    -0.000000000000000    -0.000000000000000
    -0.000000000000000    -0.000000000000000    -0.000000000000000
    -0.000000000000000    -0.000000000000000     0.000000000000000
1 16
    -0.020210959217756    -0.012408068773068     0.028504256305514
    -0.060360685867691     0.008209635223877    -0.119160550193183
     0.100648374321551    -0.069868708127438     0.179362952763632
1 17
     0.000813487454018    -0.009408021805526    -0.028778237368248
    -0.001155757115413    -0.018624779713978     0.037760365284271
     0.021940053621163     0.022954037567233    -0.042058320231862
1 18
     0.000335443658362    -0.000011413095112     0.000149337564977
     0.000019952453965     0.000429817760686     0.000241470224149
     0.000131119614856     0.000128362836348    -0.000304433184292
1 19
     0.000000000000000    -0.000000000000000    -0.000000000000000
     0.000000000000000    -0.000000000000000    -0.000000000000000
    -0.000000000000000    -0.000000000000000     0.000000000000000
1 20
    -0.073168027267534     0.098091638620088    -1.153780167717419
     0.296323877811577    -0.459436099622949     3.236232184549866
    -1.714221671170062     2.365682243656224    -1.879410392305823
1 21
    -0.021169607292508    -0.011436512539562     0.009572949196879
     0.016045215730843    -0.020870397089856    -0.052081143926934
     0.052877545445148    -0.005448528675500    -0.088616385758900
1 22
     0.000371842641867     0.000051701298761     0.000023401672306
    -0.000055408150086     0.000445290818337     0.000339926304657
     0.000115955436289     0.000058992724840    -0.000369130143242
1 23
     0.000000000000000     0.000000000000000    -0.000000000000000
    -0.000000000000000    -0.000000000000000    -0.000000000000000
    -0.000000000000000    -0.000000000000000     0.000000000000000
1 24
     0.128699382735894     0.263015409932570    -0.132824720266912
    -0.333001720074236     0.123407321904159    -0.218554049869601
     0.207922448628752     0.148984791020286    -0.513633664852143
1 25
    -1.654023485627483     1.930767935965643     0.984416493053054
     2.331970121846974    -2.693885459763963    -1.256009736807766
     0.681333732455204    -0.541690902563694     1.701987227415197
1 26
     0.000466494666108     0.000526610743370     0.000835307801080
    -0.000191677210469     0.001530767845792     0.000827669304617
    -0.006935661674434     0.006939363987336     0.012989370181432
1 27
     0.000000000000000    -0.000000000000000    -0.000000000000000
    -0.000000000000000    -0.000000000000000    -0.000000000000000
    -0.000000000000000    -0.000000000000000     0.000000000000000
1 28
    -0.005553454432108     0.006851628471063    -0.004250979791880
     0.006308958642709    -0.005673077976729     0.003276641162585
    -0.013310421371451     0.025557853964074    -0.034755573336481
1 29
    -0.003763261298398     0.249064972834724     0.278344752461613
    -0.430010183605470    -0.108246780349103    -0.478130828228374
     0.553778119135414    -0.001777672261593    -0.130030296359506
1 30
    -0.000576174370824     0.001307365605020    -0.002328541789708
     0.000544835664007     0.000527314410915     0.002918228990007
    -0.002686740300237     0.000603346694543     0.003986132468930
1 31
    -0.000000000000000     0.000000000000000     0.000000000000000
     0.000000000000000     0.000000000000000    -0.000000000000000
    -0.000000000000000    -0.000000000000000     0.000000000000000
1 32
    -0.000212972527981     0.000878922361334    -0.000850790225433
     0.000289741883108     0.000262840530405     0.000630759394797
    -0.000833916383374     0.000766533586320    -0.005594057945760
1 33
     0.130638407765030    -0.026405653153486    -0.140741795433022
    -0.110982916605468     0.149072797815506     0.283749400967795
     0.164328169150909    -0.091213727382680    -0.031928410694029
1 34
     0.000420701392624     0.000061266486443    -0.000012911212748
    -0.000023809534487     0.000539256236877     0.000219407648464
     0.000167117075926     0.000062877467156    -0.000398312046782
1 35
     0.000000000000000     0.000000000000000    -0.000000000000000
    -0.000000000000000    -0.000000000000000    -0.000000000000000
    -0.000000000000000    -0.000000000000000     0.000000000000000
1 36
    -0.028750585300401     0.020972583360536    -0.106739978895090
     0.007963056006521    -0.002597943991316     0.073257224069396
    -0.091273051293640     0.052887757347080    -0.210018849977193
1 37
     0.028190709026161    -0.015810080846956    -0.015910433263312
    -0.000851373388855     0.003583029320143    -0.006416488109730
    -0.009376756573425     0.014439405864426    -0.039256256216789
1 38
     0.000485638098455     0.000041764487509    -0.000034203129208
    -0.000041080381849     0.000547495233663     0.000212609728994
     0.000195078186093    -0.000026975799426    -0.000454436568436
1 39
     0.000000000000000     0.000000000000000    -0.000000000000000
    -0.000000000000000    -0.000000000000000    -0.000000000000000
     0.000000000000000     0.000000000000000     0.000000000000000
1 40
    -0.008229982755305    -0.001459994249959    -0.040142416174213
     0.011086149286221     0.005660476151016     0.012253437012065
    -0.040151689370264     0.012712173510259    -0.010072981199797
1 41
    -0.007726491031611     0.005602815246612     0.022006921414644
     0.000733447890467     0.000358952906470    -0.008201868418707
    -0.004059290759939    -0.003327190730134    -0.022487582436430
1 42
     0.000324134278622     0.000018840997899    -0.000042317571758
     0.000005141880276     0.000417823674330     0.000248464472100
     0.000107769237066    -0.000001886658279    -0.000275956709251
1 43
     0.000000000000000     0.000000000000000    -0.000000000000000
    -0.000000000000000    -0.000000000000000     0.000000000000000
     0.000000000000000    -0.000000000000000     0.000000000000000
1 44
     0.193787930621170    -0.054362095785300     0.039944008539538
    -0.238529369738072     0.110752805569859     0.033684555477149
     0.165441341211285     0.023169863331974     0.095620997350797
1 45
    -0.017374474637017    -0.008565306660533     0.007943980948349
     0.011397940293736     0.001826067384087    -0.013108922152535
     0.009892602197036     0.012089116186431    -0.012840990132903
1 46
     0.000324006695232     0.000003394892583    -0.000080671197156
    -0.000045428188354     0.000465049937615     0.000167847246010
     0.000181392703566    -0.000107356459163    -0.000453879966137
1 47
    -0.000000000000000     0.000000000000000    -0.000000000000000
    -0.000000000000000    -0.000000000000000    -0.000000000000000
     0.000000000000000     0.000000000000000     0.000000000000000
1 48
    -0.033565115436356    -0.054151141366781    -0.060254869704778
     0.051815609891792    -0.049778775870036     0.027204333036156
    -0.063681629237159    -0.017617517847001    -0.060156772520883
1 49
    -0.010126736460239    -0.054383739895634     0.218397136228165
     0.172919402007643     0.056125087644376    -0.119235848649458
    -0.092682109969647     0.066097963998593     0.119442060061358
1 50
     0.000543483061415     0.000046970191417    -0.000090616940050
    -0.000039085030468     0.000628551695510     0.000223080019084
     0.000212136841297    -0.000010966378353    -0.000462144265068
1 51
     0.000000000000000     0.000000000000000    -0.000000000000000
    -0.000000000000000    -0.000000000000000    -0.000000000000000
     0.000000000000000     0.000000000000000     0.000000000000000
1 52
    -0.001008930082139     0.004475317594078    -0.000394315401894
    -0.001438076396775    -0.005023295819654    -0.005531578824231
    -0.009679738157028     0.006073416697763    -0.007545317430652
1 53
     0.002682624402228     0.032863410656295    -0.074549371246826
    -0.011941082055985    -0.064947754033208    -0.003224925854958
    -0.071971031025696    -0.018747018978836     0.051667651481522
1 54
     0.000618766940929    -0.000225429161730    -0.000469997122824
     0.000287809410957     0.000439327212851    -0.000367746600096
     0.000001028521856     0.000367868804092     0.000289845919152
1 55
    -0.000000000000000     0.000000000000000    -0.000000000000000
    -0.000000000000000    -0.000000000000000    -0.000000000000000
     0.000000000000000     0.000000000000000     0.000000000000000
1 56
     0.000667221944462    -0.001551180194419     0.000363351662582
     0.002332293475723    -0.001856870822724     0.003351128554658
     0.001174765187481    -0.002817076658959     0.000637186562241
1 57
    -0.035140033728981     0.007806405958030     0.048392483700026
     0.006250425117329     0.006048465809183     0.010498796295243
     0.034604131870376    -0.003879521102754    -0.034994958672408
1 58
     0.000327719889799     0.000017881542840    -0.000038296348286
     0.000016331671727     0.000492078213604     0.000094864477975
     0.000248306184096    -0.000019815580671    -0.000506628280884
1 59
    -0.000000000000000     0.000000000000000    -0.000000000000000
    -0.000000000000000    -0.000000000000000    -0.000000000000000
     0.000000000000000     0.000000000000000     0.000000000000000
1 60
    -0.034310208674584     0.006209710000718    -0.034872897532643
     0.007879179336963     0.006767910898999     0.004034823089943
    -0.048825025080455    -0.010286280391973    -0.035002005471974
1 61
    -0.121239586742087    -0.025227025835045     0.131755504816955
    -0.115726393083793     0.030524838963050     0.091259465941138
     0.158765642281766     0.022887773412014    -0.107880606254558
1 62
     0.000420101804886     0.000023319063285    -0.000000006459294
    -0.000009889591127     0.000509868497506     0.000077679762300
     0.000319486282141    -0.000022072993362    -0.000491903311752
1 63
    -0.000000000000000     0.000000000000000    -0.000000000000000
     0.000000000000000    -0.000000000000000    -0.000000000000000
     0.000000000000000     0.000000000000000     0.000000000000000
1 64
    -0.023638784259593    -0.006869164453490    -0.055265450187434
    -0.011996682860194    -0.003397681353269    -0.002987679742188
    -0.042622379643295    -0.035210457321998    -0.040972052616607
1 65
    -0.004314898013626    -0.000480967149784     0.010907676486150
     0.005371989603355    -0.004288623861444    -0.001140708222246
    -0.002377808435319     0.005276341580426    -0.007316678765833
1 66
     0.000233253149725     0.000027938335795    -0.000201040562709
    -0.000107022453346     0.000355414539808     0.000083114922130
     0.000214979993823    -0.000004722725810    -0.000262823310249
1 67
    -0.000000000000000     0.000000000000000    -0.000000000000000
    -0.000000000000000    -0.000000000000000    -0.000000000000000
     0.000000000000000     0.000000000000000     0.000000000000000
1 68
    -0.043791637282417     0.124730040466021     0.111959314796449
    -0.102526811797864     0.090229250023130    -0.019237966571724
    -0.249065256695184     0.013045512499895     0.119755725587490
1 69
    -0.007316385754891    -0.006082519758206     0.004705024468468
     0.006567527311178    -0.007485921749005    -0.014349723509536
    -0.011679701351658     0.009732963447366     0.023783449108384
1 70
     0.000284889996981     0.000024264437040    -0.000015134832453
    -0.000024825292810     0.000410237577296     0.000017416008349
     0.000291512558377    -0.000022730396620    -0.000388516012224
1 71
    -0.000000000000000     0.000000000000000    -0.000000000000000
     0.000000000000000    -0.000000000000000    -0.000000000000000
     0.000000000000000     0.000000000000000     0.000000000000000
1 72
    -0.080818985702216    -0.209193037526459     0.369128045541816
    -0.050290862502099     0.020928518706872     0.699787233820252
     0.786071806442415     0.088060954924958     0.427510547123885
1 73
     0.285496869168647    -0.019028955766903    -0.085506339434827
     0.165067922109825     0.018313142782304    -0.143936758353808
     0.001298935719583    -0.052156858243199     0.095386793426828
1 74
     0.000458876285118    -0.000018223685370    -0.000115404220699
    -0.000071369785018     0.000506575109641    -0.000001126625677
     0.000342496528329    -0.000016850883384    -0.000395782868987
1 75
    -0.000000000000000     0.000000000000000    -0.000000000000000
     0.000000000000000    -0.000000000000000    -0.000000000000000
     0.000000000000000     0.000000000000000     0.000000000000000
1 76
    -0.004649521234372    -0.007090249162162    -0.000414171199656
    -0.002137536357765    -0.000382576300428     0.005101762604417
    -0.020509320527200    -0.011867941763863    -0.022713171315755
1 77
    -0.411045526859507    -0.804813732584352     0.017520198730536
    -0.138389046415865    -0.481827201899613    -0.158409987360008
    -0.159060460506741     0.005740777874305    -1.436228872385808
1 78
     0.000872296840784    -0.000064254720079    -0.001244272069251
     0.000606927350005     0.000946007136481    -0.002979869386939
    -0.002498885730842    -0.001472861834312     0.007601379123158
1 79
    -0.000000000000000    -0.000000000000000    -0.000000000000000
     0.000000000000000    -0.000000000000000    -0.000000000000000
     0.000000000000000     0.000000000000000     0.000000000000000
1 80
     0.003336860140533    -0.003974901433172    -0.023693822109464
     0.009236791877814     0.003535992496573     0.000927702447191
     0.002597715354121    -0.023405768139397    -0.019571166016853
1 81
    -0.010989577557345    -0.025227384314135     0.071594032630991
    -0.012105601342668    -0.022146719257338     0.076864580833281
     0.094825601748302     0.087932450880093    -0.209911912252958
1 82
     0.000400899276594     0.000040758915237     0.000010233979012
    -0.000074763361150     0.000456380129029     0.000103977703819
     0.000339510472369     0.000043795690905    -0.000440100574854
1 83
    -0.000000000000000    -0.000000000000000    -0.000000000000000
     0.000000000000000    -0.000000000000000    -0.000000000000000
     0.000000000000000     0.000000000000000     0.000000000000000
1 84
     0.178700669610219     0.015635931582828    -0.125597662987764
     0.100241969386063     0.102342575048536    -0.140045071109191
     0.307449523636203     0.074301896959766    -0.032100636314862
1 85
     0.118658332742873    -0.253089620217446    -0.006734433584305
    -0.438696259824954    -0.280728181508905    -0.104895954329692
    -0.087371569194477    -0.058340024038278     0.826398219818676
1 86
     0.000418419380164     0.000003895226085     0.000146491718277
     0.000008539356859     0.000444766785287     0.000150193356488
     0.000361665664546     0.000149403140477    -0.000477156204690
1 87
    -0.000000000000000    -0.000000000000000    -0.000000000000000
     0.000000000000000    -0.000000000000000     0.000000000000000
     0.000000000000000     0.000000000000000     0.000000000000000
1 88
     0.196748910597391    -0.281559576953595    -0.058582791029388
     0.018030370183878     0.044443640097649     0.307756612337721
     0.295658520419085     0.103238053167528    -0.309438280807289
1 89
    -0.004187397805188    -0.006158766475216     0.021862836707842
    -0.005638185101067    -0.009892385116907     0.018365803885603
     0.001766407488617     0.005058077330871    -0.034484530955957
1 90
     0.000229214592655    -0.000016317905619     0.000151083926257
    -0.000049497342024     0.000302376997694    -0.000154284054397
     0.000178153680850     0.000022030130889    -0.000071522221057
1 91
    -0.000000000000000    -0.000000000000000    -0.000000000000000
     0.000000000000000    -0.000000000000000     0.000000000000000
     0.000000000000000     0.000000000000000     0.000000000000000
1 92
    -1.717433245235010    -1.945328707648831    -0.376625543019793
    -2.346302724431150    -2.630027650004983    -0.784507805310931
    -1.006151012651829    -1.239015608134322     1.702345966973321
1 93
     0.000637950710450    -0.006622944140136    -0.013190942669152
    -0.007567027454169    -0.020146831647580    -0.018389597604825
     0.000620988009701    -0.022624817466107     0.059237034895958
1 94
     0.000263576813243     0.000054365344516     0.000149487471462
    -0.000039962998184     0.000343712075488     0.000135086821540
     0.000205623029784     0.000173518390942    -0.000341208902406
1 95
    -0.000000000000000    -0.000000000000000    -0.000000000000000
     0.000000000000000    -0.000000000000000     0.000000000000000
     0.000000000000000     0.000000000000000     0.000000000000000
1 96
    -4.145428244389925    -2.747146066205120    -2.574317102691657
    -4.265569740204898   -14.431136411867834    -5.291253059984070
    -0.852299520965381    -5.822826891842488   -13.483812081715906
1 97
    -0.117442972172504    -0.133013947440456     0.781056351888387
    -0.331035124901006    -0.415869988659434     2.814731589431199
     1.810396274799022     2.919919230519273    -1.879501045336276
1 98
     0.000546122771702     0.000082386992309     0.000078833944030
     0.000007547891178     0.000589191449331    -0.000182978083987
     0.000273682242997    -0.000134223741233     0.001179039176698
1 99
    -0.000000000000000    -0.000000000000000    -0.000000000000000
     0.000000000000000    -0.000000000000000     0.000000000000000
     0.000000000000000     0.000000000000000     0.000000000000000
1 100
    -0.015087558663156    -0.004206550842786     0.031808504547035
    -0.012380570283130    -0.000670053794458    -0.003043510624209
     0.011126858591849     0.046278087394112    -0.042116737876672
1 101
    -4.805848739682346    -0.189620079230858     1.149718067881827
    -0.604402622433588   -10.072953044378158     3.210060368070268
    -0.658070969673236     3.345582309768146   -27.017573411464269
1 102
     0.000689695993825    -0.000017528529611    -0.000647609207154
    -0.000048364686845     0.000170529475957     0.000166707233569
     0.001183309949319     0.000017974453818     0.008522361103766
1 103
    -0.000000000000000    -0.000000000000000    -0.000000000000000
     0.000000000000000    -0.000000000000000    -0.000000000000000
     0.000000000000000     0.000000000000000     0.000000000000000
1 104
    -0.025547033341982     0.001891867345919    -0.012605762917526
     0.000031304127728    -0.013668672445914     0.020868878265949
     0.015560661051453     0.018902211367291     0.195859273005222
1 105
     0.128961027347842     0.040322769185933    -0.184181329628951
     0.006458142615797    -0.004940510157005     0.152674354709451
    -0.116890842227442    -0.002323838816795    -0.266239507551354
1 106
     0.000363762925787     0.000054636766575     0.000168920191418
    -0.000047271680978     0.000391799169097     0.000129381171304
     0.000246155167010     0.000171976850934    -0.000287484677677
1 107
    -0.000000000000000    -0.000000000000000    -0.000000000000000
     0.000000000000000    -0.000000000000000     0.000000000000000
     0.000000000000000     0.000000000000000     0.000000000000000
1 108
     0.169749153421792     0.516334039984178     0.439211790790890
     0.309325711813385     1.262280920173280    -1.937984399822489
    -1.188870615350856    -1.229887333357634    -3.544491795884117
1 109
     0.191616150290081     0.009706991465385     0.035569109324447
     0.157061701485739    -0.348747501323133    -0.362217084992295
     0.073006533307421    -0.356657879833396     0.426445225360215
1 110
     0.000359609918503    -0.000000604150921     0.000194914129303
    -0.000064411728121     0.000431307111701     0.000220656828900
     0.000211288012484     0.000149113816250    -0.000363568704014
1 111
    -0.000000000000000    -0.000000000000000    -0.000000000000000
     0.000000000000000    -0.000000000000000    -0.000000000000000
    -0.000000000000000     0.000000000000000     0.000000000000000
1 112
    -0.141388891141419    -0.008549078009094     0.752892828809519
     0.278784588853279    -1.017524234282652    -0.556998954370073
    -0.555166502147762    -0.753981829587131     1.138059667008549
2 1
     0.002231931081954    -0.002132207519126    -0.003198579968408
    -0.003308822639968    -0.002825623764124     0.002593120619403
     0.006959817242018    -0.009778240957713    -0.030468453222814
2 2
    16.751155685144667    -0.693723658118621     1.884991120598018
    -0.693723658118621    46.183483648773844    -0.851305910635077
     1.884991120598018    -0.851305910635077    58.154283131990397
2 3
     0.002231931081954    -0.003308822639968     0.006959817242018
    -0.002132207519126    -0.002825623764124    -0.009778240957713
    -0.003198579968408     0.002593120619403    -0.030468453222814
2 4
    -0.000000000000000    -0.000000000000000     0.000000000000000
     0.000000000000000    -0.000000000000000    -0.000000000000000
    -0.000000000000000     0.000000000000000     0.000000000000000
2 5
    -4.838870982330552     4.138664280738552    -1.278394316536037
     6.320842888866636   -16.113665327555402     2.622170696405994
    -0.844881634807669     2.792338130130639    -9.023825599496821
2 6
     0.000467736355226     0.001790303538831     0.014015436067153
    -0.003334702813201     0.002011168654960     0.005657272543126
    -0.014125834143069    -0.005389775167836     0.028058648869373
2 7
     0.000251478628973     0.000016886933146    -0.000158878025929
    -0.000174238898124     0.000364549615147     0.000261793658101
    -0.000103824464677     0.000225525963529    -0.000739575782422
2 8
     0.000000000000000    -0.000000000000000    -0.000000000000000
     0.000000000000000    -0.000000000000000    -0.000000000000000
    -0.000000000000000    -0.000000000000000     0.000000000000000
2 9
     0.086474004305441     0.050017312720657    -0.103905014031497
     0.083940467959351     0.039452220495694    -0.052758060421742
    -0.232630814695465     0.057727260653593    -0.266367227414019
2 10
     0.052187019157834    -0.273392865664920    -0.536834792365776
    -0.066189764557011     1.378880677397947    -1.623775918762184
     1.236358609435970    -1.555520537930996    -3.544619708470047
2 11
     0.000417353469955     0.000014916982363     0.000126952134615
     0.000000415405843     0.000522171148811     0.000217425004599
     0.000195143549162     0.000142211946849    -0.000322459198668
2 12
    -0.000000000000000    -0.000000000000000    -0.000000000000000
     0.000000000000000    -0.000000000000000    -0.000000000000000
    -0.000000000000000     0.000000000000000     0.000000000000000
2 13
    -0.020210959217756    -0.012408068773068     0.028504256305514
    -0.060360685867691     0.008209635223877    -0.119160550193183
     0.100648374321551    -0.069868708127438     0.179362952763632
2 14
    -0.191112015013393     0.378035716342795    -0.237078377086787
     0.017079885213487    -0.346120372015730     0.598185501856564
    -0.470001684121062     0.439325358240651    -0.863852259033506
2 15
     0.000500705044569    -0.000012774005436     0.000120345787722
    -0.000020565910397     0.000502727130583     0.000362744917938
     0.000146739386286     0.000196291007504    -0.000245859924442
2 16
     0.000000000000000    -0.000000000000000    -0.000000000000000
    -0.000000000000000    -0.000000000000000    -0.000000000000000
    -0.000000000000000    -0.000000000000000     0.000000000000000
2 17
    -0.073168027267534     0.098091638620088    -1.153780167717419
     0.296323877811577    -0.459436099622949     3.236232184549866
    -1.714221671170062     2.365682243656224    -1.879410392305823
2 18
     0.000813487454018    -0.009408021805526    -0.028778237368248
    -0.001155757115413    -0.018624779713978     0.037760365284271
     0.021940053621163     0.022954037567233    -0.042058320231862
2 19
     0.000335443658362    -0.000011413095112     0.000149337564977
     0.000019952453965     0.000429817760686     0.000241470224149
     0.000131119614856     0.000128362836348    -0.000304433184292
2 20
     0.000000000000000    -0.000000000000000    -0.000000000000000
     0.000000000000000    -0.000000000000000    -0.000000000000000
    -0.000000000000000    -0.000000000000000     0.000000000000000
2 21
     0.128699382735894     0.263015409932570    -0.132824720266912
    -0.333001720074236     0.123407321904159    -0.218554049869601
     0.207922448628752     0.148984791020286    -0.513633664852143
2 22
    -0.021169607292508    -0.011436512539562     0.009572949196879
     0.016045215730843    -0.020870397089856    -0.052081143926934
     0.052877545445148    -0.005448528675500    -0.088616385758900
2 23
     0.000371842641867     0.000051701298761     0.000023401672306
    -0.000055408150086     0.000445290818337     0.000339926304657
     0.000115955436289     0.000058992724840    -0.000369130143242
2 24
     0.000000000000000     0.000000000000000    -0.000000000000000
    -0.000000000000000    -0.000000000000000    -0.000000000000000
    -0.000000000000000    -0.000000000000000     0.000000000000000
2 25
    -0.005553454432108     0.006851628471063    -0.004250979791880
     0.006308958642709    -0.005673077976729     0.003276641162585
    -0.013310421371451     0.025557853964074    -0.034755573336481
2 26
    -1.654023485627483     1.930767935965643     0.984416493053054
     2.331970121846974    -2.693885459763963    -1.256009736807766
     0.681333732455204    -0.541690902563694     1.701987227415197
2 27
     0.000466494666108     0.000526610743370     0.000835307801080
    -0.000191677210469     0.001530767845792     0.000827669304617
    -0.006935661674434     0.006939363987336     0.012989370181432
2 28
     0.000000000000000    -0.000000000000000    -0.000000000000000
    -0.000000000000000    -0.000000000000000    -0.000000000000000
    -0.000000000000000    -0.000000000000000     0.000000000000000
2 29
    -0.000212972527981     0.000878922361334    -0.000850790225433
     0.000289741883108     0.000262840530405     0.000630759394797
    -0.000833916383374     0.000766533586320    -0.005594057945760
2 30
    -0.003763261298398     0.249064972834724     0.278344752461613
    -0.430010183605470    -0.108246780349103    -0.478130828228374
     0.553778119135414    -0.001777672261593    -0.130030296359506
2 31
    -0.000576174370824     0.001307365605020    -0.002328541789708
     0.000544835664007     0.000527314410915     0.002918228990007
    -0.002686740300237     0.000603346694543     0.003986132468930
2 32
    -0.000000000000000     0.000000000000000     0.000000000000000
     0.000000000000000     0.000000000000000    -0.000000000000000
    -0.000000000000000    -0.000000000000000     0.000000000000000
2 33
    -0.028750585300401     0.020972583360536    -0.106739978895090
     0.007963056006521    -0.002597943991316     0.073257224069396
    -0.091273051293640     0.052887757347080    -0.210018849977193
2 34
     0.130638407765030    -0.026405653153486    -0.140741795433022