 107  107
1 1
    20.790572559771263     0.668380311803163     0.037439500464672
     0.668380311803163    16.707537503938532    -0.064323957029152
     0.037439500464672    -0.064323957029152    15.201452208038098
1 2
     0.200578740925822    -0.050524511516967     0.101640065036253
    -0.061221074005002     0.260906741718749     0.032656519623734
    -0.055217999330972     0.005743553545839    -0.172180538288008
1 3
     0.237467375432639    -0.058680283542485    -0.078263899333552
    -0.080034016825322     0.289745051114763    -0.024664037481475
     0.046694535317242    -0.043860752306890    -0.400137774994190
1 4
     0.001620739158504    -0.000193969473221     0.000162447504631
     0.000498121637468     0.001303977117495    -0.000149407487512
    -0.000068720359239     0.000061399802420     0.002626493617360
1 5
    -0.000324116578534    -0.000049180808547    -0.002760817668532
     0.000574148402328    -0.001739720234725    -0.000085357560345
     0.003561806978785     0.004454848590348     0.002684199086119
1 6
    -0.000075005085564     0.000120377725988     0.003926181166581
     0.000361557823341    -0.000192270466264    -0.000565156666254
    -0.003069420332431    -0.001941336157737     0.002441020610947
1 7
    -1.565041163701245    -0.100942684355214     1.161234675620300
     0.402199954400768     0.483683957541398    -0.184082009331844
     1.622513280239062     0.042764908442196    -0.676461320349666
1 8
    -1.580999906342592    -0.128573285041783    -1.180358141157026
     0.389251781720152     0.479656344058218     0.185826140810327
    -1.651918173087074    -0.062968904858236    -0.712589033071767
1 9
     0.002366536660329     0.000685420041637     0.000795329855926
    -0.000507813223805     0.002597506273863    -0.000635496659781
    -0.000627568201798    -0.001051994407701     0.001319727277639
1 10
    -0.000470981656370     0.004126909392591     0.000185786133737
    -0.000585441269972    -0.002828295700916    -0.000036777124095
     0.000067707673879     0.000116023584101     0.000427327904558
1 11
     0.002236211821491     0.000671859108120    -0.000488636543306
    -0.000524643447775     0.001912341178816     0.000193704735765
     0.001381173825703     0.000728795029901     0.001453916131886
1 12
    -0.124980902349414    -0.164022551474039     0.425365876281569
    -0.218962362846150    -0.172339903805462     0.386266501239979
    -0.089762427110563    -0.066548962105498     0.132614603869902
1 13
     0.033105154330558     0.009515826253594    -0.001900967661226
     0.057508683117362     0.042278381283830     0.001351066961234
     0.004277548338957     0.001195973871877     0.021699247782031
1 14
    -0.108925295751800    -0.152160239000522    -0.415457449250363
    -0.218676468954718    -0.173343094855916    -0.374931889536348
     0.101036984377091     0.074036609503228     0.136991633247028
1 15
    -0.108131898104264    -0.011800052233505    -0.003502449824524
     0.023961539098156    -0.011283103340929     0.001487560184686
     0.005771406510471    -0.002773210110860    -0.082437892015949
1 16
     0.081040261096703    -0.027610359255828    -0.127701387873010
    -0.039780555264532     0.058623351634248     0.059799885446637
    -0.147998453260081     0.043805008692007     0.103219418929889
1 17
     0.077396353962916    -0.031609073217185     0.121537703658234
    -0.037091006591098     0.058778552080597    -0.055854900748428
     0.141080655735383    -0.046549390938090     0.105544553831211
1 18
     0.000247293458914     0.014471348587190     0.000232014186713
     0.002557123206062    -0.006390848492824    -0.000137756025479
    -0.000135790979495    -0.000313253213955     0.000362116557996
1 19
     0.000707132560414    -0.001056575830969    -0.002990133317929
     0.000874412117823    -0.002801955324281    -0.000605830366613
    -0.003392780654338     0.011665493278901    -0.000382458873082
1 20
     0.000915561752197    -0.002161357745900     0.003257514135392
     0.001422708038032    -0.002537555567114     0.000674549678128
     0.003710780108691    -0.010961488782746    -0.000694957227641
1 21
    -0.005279025559231     0.030959600695724     0.015802838751228
     0.011334649645929    -0.008382020274859    -0.009677066573713
     0.001664364294826    -0.005930153647148     0.007249085381476
1 22
    -0.027989411177302     0.056487225809077     0.000931280185334
     0.008790959840380    -0.008405180979557     0.000675198897635
    -0.002177959720687     0.001269517516882    -0.031185406000462
1 23
    -0.001891239238660     0.027244757451743    -0.016345868874438
     0.009411847192605    -0.006634819753352     0.011135745964449
    -0.000592767671650     0.003791718908865     0.007864900795370
1 24
     0.001241535076838     0.000009254257802    -0.000596453488771
     0.000307833570795     0.001662518833774    -0.001468642818383
     0.001190194494170     0.000223544043274     0.002769263800692
1 25
    -0.001421430162149     0.000248976025177     0.000378491824723
     0.000267685012215    -0.001169472500754    -0.000154354921536
     0.000110180999349    -0.000032968477128     0.003525928935069
1 26
     0.000498219332230     0.000037160508365     0.001796698377900
     0.001312189897630     0.000119515049917     0.001617074517664
    -0.000440389181433    -0.003833521826608     0.002502056270244
1 27
    -0.028931051880841     0.021605528643663     0.001860739747409
    -0.004849705533238     0.005807363264172    -0.000656492502856
    -0.001347068017677     0.000089282037132     0.029203358806671
1 28
     0.007245425351064     0.002663955158174     0.010238018379050
     0.013102067486901     0.003394726213368    -0.009838505909783
    -0.007948440176460     0.008757939098409     0.001013475274520
1 29
     0.006501505845431     0.002983959676776    -0.010436300847009
     0.013814592911400     0.003175434514237     0.010248420856768
     0.010540509351648    -0.007762111078149     0.001060910702305
1 30
    -0.000539069088818     0.000879104980391     0.000348048745480
     0.001374141750502     0.001417839804116    -0.000081973146743
    -0.000118966771867     0.000054872106155     0.003420928598098
1 31
    -0.001968266057217     0.000636654548289     0.001228617129460
     0.001904479964847    -0.000646613850803    -0.005578280852748
    -0.001126599133031     0.007841471028607     0.002297878889837
1 32
    -0.001064460548009     0.001008796634329     0.000059878084035
     0.000003158398603    -0.000328015948808     0.003373788410425
    -0.000871486195742    -0.004805949914947     0.001777855465501
1 33
    -0.008879034783399     0.005225349516790     0.005437846274423
    -0.003070556369349     0.001830220414147    -0.001851218336099
     0.000411419227712     0.003194725516645     0.001437817395258
1 34
    -0.006882895230016     0.000021313661593     0.000550652059044
     0.002220519164707    -0.000471611156164    -0.000040809006706
     0.000300873637336     0.000133361882894     0.002063826810881
1 35
    -0.009825806044704     0.004882983289776    -0.005629434527650
    -0.002442212540678     0.001610934836530     0.003004457186847
     0.001606574216882    -0.003809948369428     0.001077643122688
1 36
    -0.079708805136221    -0.085925519627115    -0.000476348412846
    -0.029916445511312    -0.041258131733459     0.000335405754708
    -0.001714938243126    -0.000199178774060    -0.022645997580156
1 37
    -0.017436567166717    -0.007593397033207     0.002106542775553
    -0.025277410722771    -0.005863866513880     0.007293567428000
     0.008580196756159    -0.012110099795992     0.001079951918209
1 38
    -0.016399298389681    -0.008675731505510    -0.005099802509467
    -0.022612043470157    -0.005815773357079    -0.009105144887384
    -0.008280734288082     0.013100173201643     0.001358523416946
1 39
    -0.000016071298169    -0.002064263617920    -0.000343664699751
    -0.001407611498386    -0.000703187953434    -0.000040555017077
    -0.000097498980524    -0.000060192514065     0.000058989480990
1 40
    -0.002776211404649    -0.000973623406183    -0.000792948266940
    -0.001644881446474    -0.003746648143502     0.004798853027260
     0.001032235330180    -0.003502989123882     0.000269551070157
1 41
    -0.000973604890242    -0.000793229745130    -0.000064088408784
    -0.001442947299711    -0.002831956229681    -0.003807488418027
    -0.000031755816991     0.003620416748019     0.000273491088835
1 42
    -0.003396359493882    -0.006641991217891    -0.000695445148420
    -0.002080018091008    -0.005591963569945     0.004531815608240
     0.000850771757237    -0.000830482640313    -0.000699840786614
1 43
    -0.007673172940520    -0.001690914579749    -0.000413523492238
    -0.006865759898125    -0.004661568186213     0.000067723126120
     0.000025524370210    -0.000219021905449    -0.003414259901742
1 44
    -0.003586011999101    -0.006453069741522    -0.000075161425008
    -0.002226944898755    -0.005321648867961    -0.003220410894890
    -0.001723663769453    -0.000485016784038    -0.000569136062222
1 45
     0.004066391845960    -0.014661979663098    -0.000116376096000
     0.000497720684654    -0.009311607433327     0.000050655660957
    -0.000165227339144    -0.000375871045849     0.001508100750727
1 46
    -0.003784050863148     0.001811688114439     0.004465517209331
     0.000390739998806    -0.000315951252861     0.006199570688930
    -0.002992768345901     0.004401266935051    -0.000537739270709
1 47
    -0.002650601351499     0.002107382348267    -0.005317620248767
    -0.000273083657465     0.001141412565997    -0.007338621052665
     0.001374380101734    -0.002297804901113    -0.000243492306154
1 48
     0.274421455658282     0.311103360006608     0.002545220906288
     0.292526464343758    -2.576187586472444     0.007126146011282
     0.001765745165574    -0.002665925309877     0.393430126927083
1 49
     0.218875909801620     0.061823485163648    -0.033407868406373
    -0.109064578177563    -0.100361499325322     0.241062166662620
     0.142541786521575     0.171513250521450    -0.249099132057127
1 50
     0.218785200486554     0.068347422321051     0.033024201106897
    -0.102875728243159    -0.094851818326069    -0.222864507588260
    -0.149123186706851    -0.177608449903179    -0.238022935554321
1 51
     0.002482457371402    -0.001270155100617    -0.000178494413643
     0.000658494675067     0.001895136066434     0.000814145125132
     0.001037648474099    -0.001361976202820     0.001734360896490
1 52
     0.000258512298895    -0.002318667506596    -0.000008557721292
     0.002000235273164    -0.003672019294178    -0.000064773869034
     0.000075705184887    -0.000124001236887     0.000318274779861
1 53
     0.001842065592693    -0.001297616281987     0.000111722155302
     0.000963817198166     0.001325862272655    -0.000710293673543
     0.000114740347877    -0.000346563732982     0.001788118981567
1 54
    -1.121657889551862    -0.596200107275023    -1.357567924439651
    -1.032444261029621     0.111347229859534    -0.836485113387254
    -1.157627074606687    -0.478097266897659    -0.823752264332463
1 55
     0.051718629868631     0.000600126408102    -0.001605698649674
     0.020242796354030     0.061471744264252    -0.000081046089253
    -0.007105775986108    -0.001603773082808     0.113025261131386
1 56
    -1.127990674631809    -0.589222430431911     1.345581912290212
    -1.054881268751332     0.104833749945393     0.836986691179161
     1.166629169760529     0.468658568057339    -0.787480946070125
1 57
     0.001297107097095    -0.000222583965599    -0.001301680046763
     0.000590002312792     0.000249101627953     0.001399821150950
     0.001347009104219    -0.000816547261806     0.001699548682117
1 58
    -0.001400071821253     0.000102634756644     0.000015840490395
     0.000383351846175    -0.001744105949051    -0.000125983475439
     0.000127018646354    -0.000128606270396     0.001381752974785
1 59
     0.000743285633531    -0.001355015848950     0.001443581269384
     0.000935077802436    -0.000629453803645    -0.002852336926270
    -0.002150722762866     0.000602023078974     0.001721587340772
1 60
    -0.074228645037223    -0.062622424233825    -0.004245273694615
    -0.081502633277570    -0.113891023767128    -0.000298572285672
    -0.003163623892289     0.000315613094627     0.015501520927416
1 61
     0.087978115132293     0.017228545295862     0.158122439619412
     0.024879990526559     0.039278046196466     0.126823287247071
     0.103208954894122     0.078628643641010     0.054821769178432
1 62
     0.087728076613361     0.010522190563808    -0.154062873319661
     0.026254282547121     0.038897995927592    -0.127659301952382
    -0.107253089588280    -0.077029764041932     0.052504017776859
1 63
     0.002421801936790     0.000020284175603     0.000030854249796
     0.000437559002812     0.001028301026170    -0.000078013236991
    -0.000111493275729     0.000085618686842     0.001407887983533
1 64
    -0.000222744113561    -0.000428260275055     0.000418427515359
    -0.001443142514701    -0.001987176747543     0.000081634713945
     0.003103402854798     0.003766955858258     0.001388970735545
1 65
     0.000181431365143    -0.000924361911660    -0.000280236300950
    -0.000656328519773    -0.001133180125081    -0.000687668718907
    -0.002488083652044    -0.002152096679371     0.001435872529421
1 66
    -0.004991832021965    -0.009680155909218     0.004681472940713
    -0.010145681042479     0.007461323449363     0.003769582022877
    -0.007686879615019    -0.014104860200507     0.010307256904164
1 67
    -0.007702987417035    -0.058363504321359    -0.000603311463934
    -0.005501255874820    -0.030407855045800    -0.000121609744109
    -0.000423294214493    -0.000653122915968    -0.031741063630003
1 68
    -0.004544233962681    -0.007002778794230    -0.004727878905649
    -0.009817900413011     0.007322617931043    -0.003198936285311
     0.007007003168246     0.010532075835286     0.010969857248735
1 69
    -0.189291620746891     0.019007976232592    -0.053501575647766
     0.130084144463046     0.036886155831668    -0.024512686137870
    -0.136587806454347    -0.042463536442889     0.094667845886284
1 70
     0.009839613985880    -0.006225066041419    -0.001915753331577
     0.023683850095068     0.045547062113399     0.000851483292311
     0.000521051006665    -0.000742840688419    -0.030233411254195
1 71
    -0.186171912840395     0.013303816493077     0.048327833000884
     0.131570691972615     0.033718782982090     0.027174860576790
     0.108179665375259     0.045978907582151     0.095270464607407
1 72
     0.056252104895019    -0.005759412602189     0.000749255296373
    -0.001022691972220    -0.000434448823153    -0.000342766720430
    -0.003885086962209     0.000455569040224     0.018254457235843
1 73
     0.010402779754293    -0.007187546643603     0.007066318309816
    -0.000830393284243    -0.011165068566898    -0.012152845860288
    -0.003688049501810     0.011683582232654     0.003998648613900
1 74
     0.004850615076002    -0.008196320314149    -0.009160466644979
     0.003647145930039    -0.013641375830038     0.014083779643684
     0.003221009026620    -0.012760420433225     0.002793651216240
1 75
     0.002626003206617    -0.001754006214092    -0.001094260053826
     0.002212207750934     0.001039856203132     0.003262159113703
     0.000687751071783    -0.001783863150404    -0.006295082261253
1 76
    -0.000849129770668     0.003759547822864    -0.000113371073659
     0.001033295743285     0.002720098069193    -0.000066423111341
     0.000094453593232    -0.000149845158434    -0.005710169185083
1 77
    -0.001111902862657    -0.001451390621757    -0.000268818706686
     0.003190364216443    -0.001782648036737    -0.006161627575088
     0.001055156546869    -0.002811914190735    -0.006126790261523
1 78
     0.002094110274960    -0.003658272824869     0.000148738540001
    -0.000027567944250     0.003828750230686    -0.000024597458074
    -0.000120037589661     0.000054909871098    -0.001994142327785
1 79
    -0.002052453659657    -0.003706126912500    -0.006574027936165
     0.000123496035234     0.001242541677827    -0.000841991137006
    -0.000565112768613     0.007639967761074    -0.000859514911276
1 80
     0.002200325346729    -0.002298005568505     0.005613360418155
     0.000077809041887     0.005274088031209    -0.000178555690692
     0.000761796566645     0.000533825125565    -0.001186370666462
1 81
     0.069228225851414     0.073448108531505     0.033185089268964
     0.020985625517601     0.013169650936699    -0.004792992482346
     0.017998036470606     0.042805081549335    -0.000997540954801
1 82
    -0.020521025699919     0.002048828899314    -0.001996087544964
    -0.006524209982004    -0.007232463661032    -0.000766618070497
     0.000356480940512    -0.000091088215466    -0.008387897549042
1 83
     0.071113662528403     0.075029772820978    -0.031059802449677
     0.021798276646272     0.014041367419446     0.006605818633854
    -0.018968843047126    -0.042098054213931    -0.001737184448958
1 84
    -0.195062795271367     0.039509462949455     0.156164166921833
     0.150611904811386    -0.031868889784529    -0.011923560989566
     0.177514787571368     0.074784646627666    -0.186806258086848
1 85
    -0.019077543174265    -0.050995597207594     0.003017076249352
     0.002894765879367    -0.027810003103002    -0.002353787186917
     0.003870550451351     0.005801778836831     0.014194504973647
1 86
    -0.194905808620206     0.055967222150344    -0.159133376535784
     0.145303532408648    -0.032090145867562     0.009040537248246
    -0.175651693468969    -0.068361200911276    -0.188863106338312
1 87
    -0.761023712051908     0.074119765235665    -0.005662507037786
    -0.047489766819017     0.032842058774665     0.005646693123341
     0.004624802714822     0.000797841113707     0.430762516730909
1 88
    -0.280925198009019     0.035552786969189    -0.134484999616888
    -0.118863528057005     0.012014365774404    -0.171499338952395
    -0.134249391783217    -0.031619880513836    -0.097320936051870
1 89
    -0.282696092432175     0.037177000396421     0.140636731605934
    -0.118660264795258     0.011915766730617     0.172806640375396
     0.137149055900255     0.035254813893144    -0.096255107332026
1 90
    -3.904826458698645     3.195113870584598    -3.767801364916102
     3.161647385577039    -4.660518936809953     4.177184199574646
    -3.612182805959361     4.017639988494508    -5.621608278350330
1 91
    -0.141054450560084    -0.152727946169001    -0.003598749764794
    -0.184045688320394    -0.167579676677242    -0.003333676196196
    -0.006644856729599     0.009086984224185     0.304887863167820
1 92
    -3.944374569952102     3.158450663910109     3.763933846971443
     3.168122426583657    -4.623921826601972    -4.127198445351690
     3.635572413524881    -3.928301051130353    -5.570137305515750
1 93
    -6.609113693609348    -5.435683689900675    -0.016591888808295
    -5.220700568585610    -5.861991780246714    -0.012646150980943
     0.000828897506811    -0.000804860457339    -0.957172109890632
1 94
     0.072884586923949    -0.122129307603722     0.480056013425846
    -0.032248656234460    -0.085817179263649     0.093053686343636
     0.267816892780640     0.093661910614758    -0.184292292823747
1 95
     0.095958345574138    -0.117089626148443    -0.479431516131754
    -0.046593321569473    -0.069563648765801    -0.116373672262165
    -0.268687189514296    -0.071906636518947    -0.168232915287487
1 96
     0.001249427298262    -0.000468596051291    -0.002492172147263
     0.000251749449614     0.000787086040175     0.001510906534021
     0.001306906389646     0.002150064722754    -0.003991481823081
1 97
    -0.001437891055512     0.000216318066921     0.000265791182385
     0.000263532617361    -0.001384731426535    -0.000116806239362
     0.000113702853112    -0.000078137060489    -0.004530162748933
1 98
    -0.002059908165650    -0.001631719652168     0.003998091424893
    -0.000253221259694    -0.001707396098666    -0.003017232894858
    -0.002246978880307    -0.005588760821325    -0.004119368682955
1 99
     0.001114625029384     0.000612010467888    -0.000040829812283
    -0.000318278390047     0.002334611173729    -0.000102581893324
    -0.000070484419872     0.000016155489325    -0.007006881876602
1 100
    -0.003800216448196     0.001071107107222    -0.002929415304890
     0.000143139030966    -0.001355526721162     0.007498883018900
     0.001387819838587     0.002859860432445    -0.005265468413048
1 101
    -0.000303838659160     0.000456841913495     0.003274008381514
    -0.000046882517422     0.000267474149553    -0.008855567735464
    -0.001750945687182    -0.000335367012273    -0.006878651396988
1 102
     0.000320693254408    -0.005224746956545    -0.001004363919208
     0.000298080668246     0.005426372433374    -0.002881932902034
     0.001289622539200     0.003015992295675     0.000009012932750
1 103
     0.006458982063200    -0.006899942545530    -0.000141533048720
    -0.003751521553940     0.001798045198712     0.000081924263057
     0.000067902973686     0.000183557082612     0.005053891431919
1 104
    -0.002285952886829    -0.005179357393682     0.003305676950292
     0.001137725713477     0.001718559972172     0.003725634699096
    -0.000753854072901    -0.008136822170408    -0.000052956003204
1 105
     0.000212636517186     0.013365219272636    -0.000361287020033
    -0.003381771334256    -0.007243583343943     0.000025802259204
    -0.000047377904797    -0.000062310305705    -0.008105500152848
1 106
     0.002021660209064     0.004850345394977     0.005547208493739
     0.002201996638892     0.003153512567184     0.010731799248746
    -0.002193158741759    -0.010693979252924    -0.004775625795709
1 107
     0.002337522977510     0.004438124718016    -0.005072258681300
     0.001105968271343     0.004870845665364    -0.008632332453255
     0.000648950881940     0.013472993965717    -0.004760347890862
2 1
     0.200578740925822    -0.061221074005002    -0.055217999330972
    -0.050524511516967     0.260906741718749     0.005743553545839
     0.101640065036253     0.032656519623734    -0.172180538288008
2 2
    18.390192615148411     2.422396992395184     3.287656334844510
     2.422396992395184    16.609828972585660    -1.461016144647468
     3.287656334844510    -1.461016144647468    12.354329672588044
2 3
     0.223866675833128    -0.062024766069092     0.006441755079485
    -0.075701311674872     0.348287688935379    -0.041839837001212
    -0.057307398999643     0.080080313201986    -0.555353320985282
2 4
    -0.000603725003804    -0.000997765231171     0.002150439752201
    -0.001459618511523    -0.000717759508288    -0.001134347568546
    -0.004348069560865    -0.001585999943570     0.004078801877756
2 5
     0.000571786036455     0.000144407573048    -0.001571861748722
    -0.000556944394330     0.000785561651884    -0.001227232246216
    -0.000346827272894     0.002282162503795     0.004096192195256
2 6
    -0.000266158580184     0.000453895827867    -0.005265992757177
     0.000465982008877     0.000207943795336    -0.000433105699921
     0.002562823657337     0.000952309768374     0.004114986482462
2 7
    -1.581347083830263    -0.022330651739275    -1.531755005348740
     0.233583341010126     0.601244992970624     0.026440037359751
    -1.753404143655713    -0.074850483218713    -1.014563956679460
2 8
     0.063768275625788     0.032237705683519    -0.007063389596368
     0.005575299958466     0.054940299935484    -0.040069483993079
    -0.000656972682828    -0.011817915752295     0.007858852664054
2 9
     0.001555645041347    -0.001244216913965    -0.001497248649344
    -0.001833559880927    -0.000113793006896     0.000410614416116
    -0.000262823748514    -0.004249521264927     0.002143706916375
2 10
     0.001866632149415     0.000123889305464    -0.000535469807778
    -0.000668664012078     0.002355979472562    -0.000399552670371
    -0.000102862162593     0.000587393362179     0.002890077291274
2 11
     0.000461137293046     0.002850566973622     0.000768101316939
    -0.000284833026632    -0.004569793561437    -0.001079785445117
     0.001468133989823     0.005497920717186     0.001220908567457
2 12
    -0.274927587337993    -0.240191276464897    -0.479442036410465
    -0.225813541685214    -0.133394683505990    -0.315425211130498
     0.204943669164133     0.079505052876637     0.202088357354961
2 13
    -0.107026314714914    -0.175608440674214     0.296740247789677
    -0.242506371717258    -0.160614291537494     0.348962087000530
    -0.047724829635118    -0.010871136688226     0.155351220618909
2 14
     0.012651649490155    -0.002487114055447     0.013214671666298
     0.059053584128147     0.040686282535314    -0.015465392740448
    -0.010919582595219    -0.004486624530306     0.046679220285359
2 15
     0.065535328076557    -0.027064640922716     0.089636255140007
    -0.035653497798526     0.057384500845708    -0.044112445057463
     0.146705424521336    -0.050905224447452     0.079301161011306
2 16
    -0.090811994956759    -0.044209787652671     0.003515568765299
     0.080982066182239    -0.069255200473768     0.022882588954774
     0.010420204189690     0.030287406620695     0.022830121174102
2 17
    -0.006840331731636     0.035348028821103    -0.022309140059358
     0.005359869654478     0.019572427535327     0.036977000795406
    -0.120703200624964     0.050269886573859    -0.032694718270517
2 18
     0.001190848604098    -0.008571167847042     0.003993570624848
    -0.000819376808525    -0.000428735975060     0.000530049683172
     0.003874198366998    -0.009320112109674     0.000076179860793
2 19
    -0.001597574022982     0.016534375224678    -0.002031695281987
     0.001256713001490    -0.005629233889325    -0.000266835729853
     0.001293183588369     0.002198548244039     0.001884589290283
2 20
    -0.000057987007039    -0.005032531419121    -0.005708440808269
    -0.000715452565178     0.004440134771248     0.002921098253475
    -0.002631610703801     0.006610737145727     0.000321401524403
2 21
     0.002858433382242     0.013485179080085    -0.026816482423618
     0.006106273915775    -0.005722605472861     0.014207694467361
     0.004591436353964     0.000902223409666     0.006679879237433
2 22
     0.004673468010809     0.020997930999143     0.032593162849017
     0.008156520033522    -0.000870237438977    -0.011805155818175
    -0.006067223361593     0.008943744772852     0.000287858339646
2 23
    -0.015276826180166     0.035173777620631    -0.014121414758311
     0.001582981149445    -0.001808024130009     0.002624801373721
    -0.016083065861529     0.027146568632382    -0.015874898500177
2 24
     0.000028330499375     0.000306059658526     0.000057380553658
    -0.000823882214189    -0.001014406192281     0.001502430523411
    -0.001377789298155    -0.004909953229693     0.004230929316352
2 25
     0.000618377478253     0.000733924086915    -0.002349485718620
     0.000029487334873     0.000623728391990    -0.001216724112249
     0.000565096024326     0.000857698475695     0.005207240764989
2 26
    -0.001388367571527     0.001217494734850    -0.003423302951104
    -0.000684518114466    -0.000620231839282    -0.002680766913196
     0.003253761241401     0.003600202545631     0.004475622400828
2 27
     0.026189640145278     0.011460289592387    -0.002890000570553
     0.005971117879949     0.002428159405331     0.005685117252674
     0.016094351935864    -0.007749662975622     0.005074270687715
2 28
    -0.018894603409139     0.026134100194704     0.011379924543274
    -0.024737616858593     0.005215554593289    -0.000006355649883
     0.024739081972217     0.003305318333842     0.016578554427795
2 29
    -0.032245057248094     0.002710621202916     0.034689572478472
    -0.005849354570711    -0.001866782585504     0.001195070930922
     0.005791598320600     0.003464728092376    -0.008374392107922
2 30
    -0.001956525234314    -0.000215721551981    -0.000814871713730
    -0.000258959453316    -0.001654120160458     0.006928491184087
    -0.000324179710542    -0.006842768323444     0.004113906868005
2 31
    -0.001312429051234     0.000384805508652     0.000044280059577
     0.000673801201035     0.000562033108069     0.000702033676163
    -0.001000162219844     0.000429108069128     0.003803867049611
2 32
    -0.002124829537550    -0.000297908754435     0.000038426196812
     0.002844123391346    -0.000427246818289    -0.004368664870814
    -0.001054170267575     0.005707868038833     0.003544082156277
2 33
    -0.008790101237124     0.004208578908387    -0.005466064476727
    -0.002282865596729     0.000378366834454     0.004317420323013
     0.002240790692970    -0.004304607307280     0.002774942624288
2 34
    -0.010567107364622     0.006885880838382     0.004498357825095
    -0.001725608636580     0.001050406994947    -0.000716517611679
     0.001013093692180     0.000014687174185     0.004130514529624
2 35
    -0.007748735743608     0.002180287540825     0.006256297738137
     0.002881079383924    -0.000706570800125    -0.005101091796210
    -0.001158344099947     0.005448109255973    -0.000707818716691
2 36
    -0.018174911229416    -0.011472129175824    -0.005946679866435
    -0.020450944912697    -0.002635934135546    -0.011151782568417
    -0.001705765652837     0.016629724798916    -0.000732503166827
2 37
    -0.066621997829602    -0.086517831195132    -0.002110293134047
    -0.020358637405440    -0.032969334990085    -0.000749073677578
     0.001507601704242     0.003952384647873    -0.020669942550655
2 38
    -0.004963547961067    -0.005452514449440     0.000528548923581
    -0.016978439089637    -0.001788569755845     0.004894451439895
     0.014498707844071    -0.011138529603196     0.002151404127981
2 39
    -0.001625948148561    -0.002568631124968    -0.000763400686141