  64   64
1 1
    17.111223715685281    -0.000000026119225     2.243368969655220
    -0.000000026119225    40.318295584548046     0.000000031465021
     2.243368969655220     0.000000031465021    55.199854837242214
1 2
     0.051762184540944    -0.000000035872664    -0.386509645064587
    -0.000000040533736     0.050738507499039     0.000000126035309
     0.054626741190503    -0.000000042697311     0.625181749906091
1 3
    -0.000000000000000    -0.000000000000000     0.000000000000000
     0.000000000000000    -0.000000000000000     0.000000000000000
    -0.000000000000000    -0.000000000000000     0.000000000000000
1 4
     0.051762184540944    -0.000000040533736     0.054626741190503
    -0.000000035872664     0.050738507499039    -0.000000042697311
    -0.386509645064587     0.000000126035309     0.625181749906091
1 5
     0.132893130956260     0.316909775084411     0.361790499279805
     0.056112908961005    -0.240093371549262    -0.324828365551927
    -0.026401541041157    -0.485603570315092    -0.619280920321898
1 6
    -0.000857430612793    -0.000508484779410    -0.001965428477666
    -0.002723918682768     0.002472423652844    -0.006724798242763
     0.005932851661214    -0.003429794857795    -0.015766883858467
1 7
     0.000000000000000     0.000000000000000    -0.000000000000000
     0.000000000000000    -0.000000000000000    -0.000000000000000
    -0.000000000000000     0.000000000000000     0.000000000000000
1 8
    -4.279156516120739     3.811875334806028    -2.517648791361068
     5.434145958454178   -13.525363172793632     2.793783714814917
    -0.195283748555992     3.755492019906889    -8.002500074209205
1 9
     0.312162658882908    -0.638233613975192    -0.132873882946422
     0.140485958614063     0.343085439642270    -1.953539555536021
     1.439808692195050    -1.653501229536676    -2.601715092116293
1 10
     0.001982408287456    -0.001018755006192    -0.002782163864484
     0.002288494963890     0.002392712922146     0.018483940315647
     0.003581161217542     0.009661419248342     0.039786171487688
1 11
     0.000000000000000     0.000000000000000    -0.000000000000000
     0.000000000000000    -0.000000000000000    -0.000000000000000
    -0.000000000000000    -0.000000000000000     0.000000000000000
1 12
     0.082712928871464    -0.405321878714482    -0.147858667444501
     0.373109635424827     0.577118753743693     2.187238681506611
    -1.483603460595366     1.284987399867018    -2.602076743332643
1 13
    -0.813625119820966     1.320317860442598     0.116867209617337
     0.733244042788942    -0.815135032449382     0.112920787192756
    -0.112806681697421    -0.114098333019309    -1.305099715456550
1 14
     0.017131425570915    -0.010983589748086    -0.042759593521348
    -0.017999721544099     0.017826397896572     0.077014831857799
    -0.070659599091038     0.045528403428299     0.203774767024160
1 15
     0.000000000000000     0.000000000000000    -0.000000000000000
     0.000000000000000    -0.000000000000000    -0.000000000000000
    -0.000000000000000    -0.000000000000000     0.000000000000000
1 16
     0.244225302558764     0.365390277347708    -0.512192671192251
    -0.507928515555079     0.240510479355841    -0.365205206891619
     0.359078214709991     0.514961644075819    -0.821757031820803
1 17
    -1.963541023333323     2.536837221192458     0.818191524595672
     2.122996807992613    -1.963541070866715    -0.204046852561536
    -0.204046854661356     0.818191559575067     2.169300545973089
1 18
    -0.012063927835372    -0.018608147101633    -0.169365655247898
     0.072757432794437    -0.018491832702087     0.005151821002922
     0.066084675777875     0.092185036424697    -0.097049056075526
1 19
     0.000000000000000     0.000000000000000    -0.000000000000000
     0.000000000000000     0.000000000000000    -0.000000000000000
    -0.000000000000000    -0.000000000000000     0.000000000000000
1 20
    -0.018491829592890    -0.018608153559125     0.092185091333567
     0.072757414625825    -0.012064045413390     0.066084644771377
     0.005151774575332    -0.169365519158789    -0.097049047238942
1 21
    -0.167200591215153    -0.024346469705888     0.328087856207291
     0.245902158058855     0.054468653134366    -0.298746676446866
     0.443073947798709    -0.020871948976404    -0.635202274918939
1 22
    -0.000804816950217     0.000522967734618     0.007033151639981
    -0.001741444229246    -0.002013769532199    -0.005204931883988
     0.008608369933661    -0.001172626423806    -0.004593758765161
1 23
     0.000000000000000     0.000000000000000    -0.000000000000000
     0.000000000000000    -0.000000000000000     0.000000000000000
     0.000000000000000    -0.000000000000000     0.000000000000000
1 24
     0.241686398616765    -0.054516275271144    -0.053005857920035
    -0.181997162357928     0.005283061610025    -0.394828053000163
     0.241569234897047     0.316955334086737     0.195940961016241
1 25
     0.469078581977294     0.061057295820219     0.058605386999325
    -0.134137270989849    -0.085322347619141     0.256443647395153
     0.209346574496456    -0.285903664200712    -0.004849033091803
1 26
     0.001214374900294     0.000111463520979    -0.002473153744190
    -0.000473298195999     0.000045308177252     0.003097965822181
     0.006183428258126    -0.000813202618185     0.006821519990801
1 27
     0.000000000000000     0.000000000000000    -0.000000000000000
     0.000000000000000    -0.000000000000000     0.000000000000000
     0.000000000000000    -0.000000000000000     0.000000000000000
1 28
     0.232335871967502    -0.179119142370352    -0.348089436564477
    -0.374194883845036     0.155813083560084    -0.054239140526390
     0.135539941146994     0.221553011991805    -0.004655831546470
1 29
     0.087375576229835     0.000000035416049     0.148301491139939
    -0.000000009088523     0.020522248325484    -0.000000003453682
     0.146514906379868    -0.000000012301883     0.152628726913380
1 30
     0.006343056234098     0.000000024834865    -0.015834862112375
    -0.000000018803763    -0.008816382782620     0.000000025928180
    -0.011380289635897    -0.000000080735621     0.037087716125739
1 31
     0.000000000000000     0.000000000000000    -0.000000000000000
     0.000000000000000     0.000000000000000     0.000000000000000
     0.000000000000000    -0.000000000000000     0.000000000000000
1 32
    -0.505326567611662     0.000000021829293    -0.729802192954219
    -0.000000023541225     0.125453218332871    -0.000000012427589
    -0.737829934950841     0.000000076539812    -0.853184940188010
1 33
    -0.544956930209792     0.000000029589923     0.676945145062736
     0.000000002873592    -0.249021146963097    -0.000000008252975
    -0.676945118228475     0.000000008222303     0.837346233358938
1 34
     0.044192080372625     0.000000015509576    -0.090315466522011
    -0.000000014320579    -0.100210450475074     0.000000038854284
    -0.149110093937558    -0.000000066903806     0.149030021572423
1 35
    -0.000000000000000     0.000000000000000    -0.000000000000000
     0.000000000000000     0.000000000000000     0.000000000000000
     0.000000000000000    -0.000000000000000     0.000000000000000
1 36
     0.044192079314369     0.000000019502328     0.149110042828348
    -0.000000004100179    -0.100210496456828    -0.000000034952278
     0.090315589672753     0.000000103756369     0.149030007104183
1 37
    -0.167200643487102     0.024346539951058     0.328087918067724
    -0.245902148771590     0.054468785052536     0.298746644667070
     0.443073951909738     0.020871867713299    -0.635202259661079
1 38
    -0.000804897429069    -0.000522909107394     0.007033346458662
     0.001741434264698    -0.002013663040405     0.005204874304886
     0.008608374726184     0.001172428983466    -0.004593732143596
1 39
     0.000000000000000    -0.000000000000000    -0.000000000000000
     0.000000000000000    -0.000000000000000     0.000000000000000
     0.000000000000000     0.000000000000000     0.000000000000000
1 40
     0.241686374551720     0.054516308798377    -0.053005929017851
     0.181997142561123     0.005283218954572     0.394828087835584
     0.241569238326583    -0.316955258356694     0.195940964910394
1 41
     0.469078546121904    -0.061057239624960     0.058605347391472
     0.134137313265237    -0.085322433201915    -0.256443636146589
     0.209346594623873     0.285903620979579    -0.004849114815775
1 42
     0.001214351385140    -0.000111433438485    -0.002473306346765
     0.000473312698309     0.000045237207562    -0.003097909894132
     0.006183449067035     0.000813029835076     0.006821449630530
1 43
     0.000000000000000    -0.000000000000000    -0.000000000000000
     0.000000000000000    -0.000000000000000     0.000000000000000
     0.000000000000000     0.000000000000000     0.000000000000000
1 44
     0.232335823771877     0.179119176342493    -0.348089363177610
     0.374194905557618     0.155812983364226     0.054239147911380
     0.135539960592917    -0.221552884835050    -0.004655924634144
1 45
    -0.813625190820834    -1.320317843405303     0.116867234631996
    -0.733244009835751    -0.815135018345230    -0.112920799250418
    -0.112806672774475     0.114098333843463    -1.305099753487829
1 46
     0.017131322780793     0.010983595571001    -0.042759532075019
     0.017999732121843     0.017826398198220    -0.077014812889648
    -0.070659589204316    -0.045528538507843     0.203774745063585
1 47
     0.000000000000000    -0.000000000000000    -0.000000000000000
    -0.000000000000000    -0.000000000000000     0.000000000000000
    -0.000000000000000     0.000000000000000     0.000000000000000
1 48
     0.244225263349149    -0.365390297431915    -0.512192682609264
     0.507928522547835     0.240510507262498     0.365205204624056
     0.359078222669160    -0.514961466532053    -0.821757085922783
1 49
    -1.963541088907143    -2.536837218630249     0.818191533240611
    -2.122996755471418    -1.963541075087512     0.204046842784226
    -0.204046840751937    -0.818191520890299     2.169300491766087
1 50
    -0.012064012860393     0.018608123635516    -0.169365649856020
    -0.072757408821966    -0.018491838371371    -0.005151789236521
     0.066084690651072    -0.092185147028370    -0.097049094211828
1 51
    -0.000000000000000    -0.000000000000000    -0.000000000000000
     0.000000000000000     0.000000000000000     0.000000000000000
    -0.000000000000000     0.000000000000000     0.000000000000000
1 52
    -0.018491875715508     0.018608133813776     0.092185103231566
    -0.072757381891792    -0.012064048185700    -0.066084655276485
     0.005151787520975     0.169365747947910    -0.097049117516647
1 53
     0.132893108005149    -0.316909785804568     0.361790443213255
    -0.056112898256417    -0.240093497098529     0.324828329369747
    -0.026401508650953     0.485603519840236    -0.619281018482583
1 54
    -0.000857410390790     0.000508463272910    -0.001965637771230
     0.002723917816774     0.002472341412941     0.006724749544546
     0.005932884732913     0.003429629568692    -0.015766970655448
1 55
    -0.000000000000000    -0.000000000000000    -0.000000000000000
    -0.000000000000000    -0.000000000000000     0.000000000000000
    -0.000000000000000     0.000000000000000     0.000000000000000
1 56
    -4.279156582244964    -3.811875383075725    -2.517648694200604
    -5.434145984514894   -13.525363341652266    -2.793783697665149
    -0.195283716847281    -3.755491914751584    -8.002500183733595
1 57
     0.312162607747445     0.638233589707950    -0.132873845687177
    -0.140485985185432     0.343085452940749     1.953539549277574
     1.439808697603994     1.653501218139525    -2.601715100424613
1 58
     0.001982332421557     0.001018708088291    -0.002782053595776
    -0.002288551034359     0.002392700722086    -0.018483853243458
     0.003581167307979    -0.009661558844481     0.039786174543070
1 59
    -0.000000000000000    -0.000000000000000     0.000000000000000
    -0.000000000000000    -0.000000000000000     0.000000000000000
    -0.000000000000000    -0.000000000000000     0.000000000000000
1 60
     0.082712902466437     0.405321828762016    -0.147858703194718
    -0.373109680832977     0.577118792540711    -2.187238740279781
    -1.483603455867916    -1.284987242249267    -2.602076763004667
1 61
    -4.671365236881559    -0.000000021043591     2.153169477751576
     0.000000040059591    -8.346298367829759    -0.000000043793964
    -2.149418320895127     0.000000010619447   -26.115809778957974
1 62
    -0.020659985235913    -0.000000028114112    -0.068096581747466
     0.000000033217767    -0.032811918975054    -0.000000096393442
     0.078088853139727    -0.000000056850514     0.201481532030391
1 63
     0.000000000000000    -0.000000000000000     0.000000000000000
     0.000000000000000    -0.000000000000000     0.000000000000000
    -0.000000000000000    -0.000000000000000     0.000000000000000
1 64
    -0.613904914832709    -0.000000038141011     0.161545934680446
     0.000000022733473    -1.202362476164512     0.000000029213471
    -0.164035873986797     0.000000098497364    -2.615884064971816
2 1
     0.051762184540944    -0.000000040533736     0.054626741190503
    -0.000000035872664     0.050738507499039    -0.000000042697311
    -0.386509645064587     0.000000126035309     0.625181749906091
2 2
    17.111223715685281    -0.000000026119225     2.243368969655220
    -0.000000026119225    40.318295584548046     0.000000031465021
     2.243368969655220     0.000000031465021    55.199854837242214
2 3
     0.051762184540944    -0.000000035872664    -0.386509645064587
    -0.000000040533736     0.050738507499039     0.000000126035309
     0.054626741190503    -0.000000042697311     0.625181749906091
2 4
    -0.000000000000000    -0.000000000000000     0.000000000000000
     0.000000000000000    -0.000000000000000     0.000000000000000
    -0.000000000000000    -0.000000000000000     0.000000000000000
2 5
    -4.279156516120739     3.811875334806028    -2.517648791361068
     5.434145958454178   -13.525363172793632     2.793783714814917
    -0.195283748555992     3.755492019906889    -8.002500074209205
2 6
     0.132893130956260     0.316909775084411     0.361790499279805
     0.056112908961005    -0.240093371549262    -0.324828365551927
    -0.026401541041157    -0.485603570315092    -0.619280920321898
2 7
    -0.000857430612793    -0.000508484779410    -0.001965428477666
    -0.002723918682768     0.002472423652844    -0.006724798242763
     0.005932851661214    -0.003429794857795    -0.015766883858467
2 8
     0.000000000000000     0.000000000000000    -0.000000000000000
     0.000000000000000    -0.000000000000000    -0.000000000000000
    -0.000000000000000     0.000000000000000     0.000000000000000
2 9
     0.082712928871464    -0.405321878714482    -0.147858667444501
     0.373109635424827     0.577118753743693     2.187238681506611
    -1.483603460595366     1.284987399867018    -2.602076743332643
2 10
     0.312162658882908    -0.638233613975192    -0.132873882946422
     0.140485958614063     0.343085439642270    -1.953539555536021
     1.439808692195050    -1.653501229536676    -2.601715092116293
2 11
     0.001982408287456    -0.001018755006192    -0.002782163864484
     0.002288494963890     0.002392712922146     0.018483940315647
     0.003581161217542     0.009661419248342     0.039786171487688
2 12
     0.000000000000000     0.000000000000000    -0.000000000000000
     0.000000000000000    -0.000000000000000    -0.000000000000000
    -0.000000000000000    -0.000000000000000     0.000000000000000
2 13
     0.244225302558764     0.365390277347708    -0.512192671192251
    -0.507928515555079     0.240510479355841    -0.365205206891619
     0.359078214709991     0.514961644075819    -0.821757031820803
2 14
    -0.813625119820966     1.320317860442598     0.116867209617337
     0.733244042788942    -0.815135032449382     0.112920787192756
    -0.112806681697421    -0.114098333019309    -1.305099715456550
2 15
     0.017131425570915    -0.010983589748086    -0.042759593521348
    -0.017999721544099     0.017826397896572     0.077014831857799
    -0.070659599091038     0.045528403428299     0.203774767024160
2 16
     0.000000000000000     0.000000000000000    -0.000000000000000
     0.000000000000000    -0.000000000000000    -0.000000000000000
    -0.000000000000000    -0.000000000000000     0.000000000000000
2 17
    -0.018491829592890    -0.018608153559125     0.092185091333567
     0.072757414625825    -0.012064045413390     0.066084644771377
     0.005151774575332    -0.169365519158789    -0.097049047238942
2 18
    -1.963541023333323     2.536837221192458     0.818191524595672
     2.122996807992613    -1.963541070866715    -0.204046852561536
    -0.204046854661356     0.818191559575067     2.169300545973089
2 19
    -0.012063927835372    -0.018608147101633    -0.169365655247898
     0.072757432794437    -0.018491832702087     0.005151821002922
     0.066084675777875     0.092185036424697    -0.097049056075526
2 20
     0.000000000000000     0.000000000000000    -0.000000000000000
     0.000000000000000     0.000000000000000    -0.000000000000000
    -0.000000000000000    -0.000000000000000     0.000000000000000
2 21
     0.241686398616765    -0.054516275271144    -0.053005857920035
    -0.181997162357928     0.005283061610025    -0.394828053000163
     0.241569234897047     0.316955334086737     0.195940961016241
2 22
    -0.167200591215153    -0.024346469705888     0.328087856207291
     0.245902158058855     0.054468653134366    -0.298746676446866
     0.443073947798709    -0.020871948976404    -0.635202274918939
2 23
    -0.000804816950217     0.000522967734618     0.007033151639981
    -0.001741444229246    -0.002013769532199    -0.005204931883988
     0.008608369933661    -0.001172626423806    -0.004593758765161
2 24
     0.000000000000000     0.000000000000000    -0.000000000000000
     0.000000000000000    -0.000000000000000     0.000000000000000
     0.000000000000000    -0.000000000000000     0.000000000000000
2 25
     0.232335871967502    -0.179119142370352    -0.348089436564477
    -0.374194883845036     0.155813083560084    -0.054239140526390
     0.135539941146994     0.221553011991805    -0.004655831546470
2 26
     0.469078581977294     0.061057295820219     0.058605386999325
    -0.134137270989849    -0.085322347619141     0.256443647395153
     0.209346574496456    -0.285903664200712    -0.004849033091803
2 27
     0.001214374900294     0.000111463520979    -0.002473153744190
    -0.000473298195999     0.000045308177252     0.003097965822181
     0.006183428258126    -0.000813202618185     0.006821519990801
2 28
     0.000000000000000     0.000000000000000    -0.000000000000000
     0.000000000000000    -0.000000000000000     0.000000000000000
     0.000000000000000    -0.000000000000000     0.000000000000000
2 29
    -0.505326567611662     0.000000021829293    -0.729802192954219
    -0.000000023541225     0.125453218332871    -0.000000012427589
    -0.737829934950841     0.000000076539812    -0.853184940188010
2 30
     0.087375576229835     0.000000035416049     0.148301491139939
    -0.000000009088523     0.020522248325484    -0.000000003453682
     0.146514906379868    -0.000000012301883     0.152628726913380
2 31
     0.006343056234098     0.000000024834865    -0.015834862112375
    -0.000000018803763    -0.008816382782620     0.000000025928180
    -0.011380289635897    -0.000000080735621     0.037087716125739
2 32
     0.000000000000000     0.000000000000000    -0.000000000000000
     0.000000000000000     0.000000000000000     0.000000000000000
     0.000000000000000    -0.000000000000000     0.000000000000000
2 33
     0.044192079314369     0.000000019502328     0.149110042828348
    -0.000000004100179    -0.100210496456828    -0.000000034952278
     0.090315589672753     0.000000103756369     0.149030007104183
2 34
    -0.544956930209792     0.000000029589923     0.676945145062736
     0.000000002873592    -0.249021146963097    -0.000000008252975
    -0.676945118228475     0.000000008222303     0.837346233358938
2 35
     0.044192080372625     0.000000015509576    -0.090315466522011
    -0.000000014320579    -0.100210450475074     0.000000038854284
    -0.149110093937558    -0.000000066903806     0.149030021572423
2 36
    -0.000000000000000     0.000000000000000    -0.000000000000000
     0.000000000000000     0.000000000000000     0.000000000000000
     0.000000000000000    -0.000000000000000     0.000000000000000
2 37
     0.241686374551720     0.054516308798377    -0.053005929017851
     0.181997142561123     0.005283218954572     0.394828087835584
     0.241569238326583    -0.316955258356694     0.195940964910394
2 38
    -0.167200643487102     0.024346539951058     0.328087918067724
    -0.245902148771590     0.054468785052536     0.298746644667070
     0.443073951909738     0.020871867713299    -0.635202259661079
2 39
    -0.000804897429069    -0.000522909107394     0.007033346458662
     0.001741434264698    -0.002013663040405     0.005204874304886
     0.008608374726184     0.001172428983466    -0.004593732143596
2 40
     0.000000000000000    -0.000000000000000    -0.000000000000000
     0.000000000000000    -0.000000000000000     0.000000000000000
     0.000000000000000     0.000000000000000     0.000000000000000
2 41
     0.232335823771877     0.179119176342493    -0.348089363177610
     0.374194905557618     0.155812983364226     0.054239147911380
     0.135539960592917    -0.221552884835050    -0.004655924634144
2 42
     0.469078546121904    -0.061057239624960     0.058605347391472
     0.134137313265237    -0.085322433201915    -0.256443636146589
     0.209346594623873     0.285903620979579    -0.004849114815775
2 43
     0.001214351385140    -0.000111433438485    -0.002473306346765
     0.000473312698309     0.000045237207562    -0.003097909894132
     0.006183449067035     0.000813029835076     0.006821449630530
2 44
     0.000000000000000    -0.000000000000000    -0.000000000000000
     0.000000000000000    -0.000000000000000     0.000000000000000
     0.000000000000000     0.000000000000000     0.000000000000000
2 45
     0.244225263349149    -0.365390297431915    -0.512192682609264
     0.507928522547835     0.240510507262498     0.365205204624056
     0.359078222669160    -0.514961466532053    -0.821757085922783
2 46
    -0.813625190820834    -1.320317843405303     0.116867234631996
    -0.733244009835751    -0.815135018345230    -0.112920799250418
    -0.112806672774475     0.114098333843463    -1.305099753487829
2 47
     0.017131322780793     0.010983595571001    -0.042759532075019
     0.017999732121843     0.017826398198220    -0.077014812889648
    -0.070659589204316    -0.045528538507843     0.203774745063585
2 48
     0.000000000000000    -0.000000000000000    -0.000000000000000
    -0.000000000000000    -0.000000000000000     0.000000000000000
    -0.000000000000000     0.000000000000000     0.000000000000000
2 49
    -0.018491875715508     0.018608133813776     0.092185103231566
    -0.072757381891792    -0.012064048185700    -0.066084655276485
     0.005151787520975     0.169365747947910    -0.097049117516647
2 50
    -1.963541088907143    -2.536837218630249     0.818191533240611
    -2.122996755471418    -1.963541075087512     0.204046842784226
    -0.204046840751937    -0.818191520890299     2.169300491766087
2 51
    -0.012064012860393     0.018608123635516    -0.169365649856020
    -0.072757408821966    -0.018491838371371    -0.005151789236521
     0.066084690651072    -0.092185147028370    -0.097049094211828
2 52
    -0.000000000000000    -0.000000000000000    -0.000000000000000
     0.000000000000000     0.000000000000000     0.000000000000000
    -0.000000000000000     0.000000000000000     0.000000000000000
2 53
    -4.279156582244964    -3.811875383075725    -2.517648694200604
    -5.434145984514894   -13.525363341652266    -2.793783697665149
    -0.195283716847281    -3.755491914751584    -8.002500183733595
2 54
     0.132893108005149    -0.316909785804568     0.361790443213255
    -0.056112898256417    -0.240093497098529     0.324828329369747
    -0.026401508650953     0.485603519840236    -0.619281018482583
2 55
    -0.000857410390790     0.000508463272910    -0.001965637771230
     0.002723917816774     0.002472341412941     0.006724749544546
     0.005932884732913     0.003429629568692    -0.015766970655448
2 56
    -0.000000000000000    -0.000000000000000    -0.000000000000000
    -0.000000000000000    -0.000000000000000     0.000000000000000
    -0.000000000000000     0.000000000000000     0.000000000000000
2 57
     0.082712902466437     0.405321828762016    -0.147858703194718
    -0.373109680832977     0.577118792540711    -2.187238740279781
    -1.483603455867916    -1.284987242249267    -2.602076763004667
2 58
     0.312162607747445     0.638233589707950    -0.132873845687177
    -0.140485985185432     0.343085452940749     1.953539549277574
     1.439808697603994     1.653501218139525    -2.601715100424613
2 59
     0.001982332421557     0.001018708088291    -0.002782053595776
    -0.002288551034359     0.002392700722086    -0.018483853243458
     0.003581167307979    -0.009661558844481     0.039786174543070
2 60
    -0.000000000000000    -0.000000000000000     0.000000000000000
    -0.000000000000000    -0.000000000000000     0.000000000000000
    -0.000000000000000    -0.000000000000000     0.000000000000000
2 61
    -0.613904914832709    -0.000000038141011     0.161545934680446
     0.000000022733473    -1.202362476164512     0.000000029213471
    -0.164035873986797     0.000000098497364    -2.615884064971816
2 62
    -4.671365236881559    -0.000000021043591     2.153169477751576
     0.000000040059591    -8.346298367829759    -0.000000043793964
    -2.149418320895127     0.000000010619447   -26.115809778957974
2 63
    -0.020659985235913    -0.000000028114112    -0.068096581747466
     0.000000033217767    -0.032811918975054    -0.000000096393442
     0.078088853139727    -0.000000056850514     0.201481532030391
2 64
     0.000000000000000    -0.000000000000000     0.000000000000000
     0.000000000000000    -0.000000000000000     0.000000000000000
    -0.000000000000000    -0.000000000000000     0.000000000000000
3 1
    -0.000000000000000    -0.000000000000000     0.000000000000000
     0.000000000000000    -0.000000000000000     0.000000000000000
    -0.000000000000000    -0.000000000000000     0.000000000000000
3 2
     0.051762184540944    -0.000000040533736     0.054626741190503
    -0.000000035872664     0.050738507499039    -0.000000042697311
    -0.386509645064587     0.000000126035309     0.625181749906091
3 3
    17.111223715685281    -0.000000026119225     2.243368969655220
    -0.000000026119225    40.318295584548046     0.000000031465021
     2.243368969655220     0.000000031465021    55.199854837242214
3 4
     0.051762184540944    -0.000000035872664    -0.386509645064587
    -0.000000040533736     0.050738507499039     0.000000126035309
     0.054626741190503    -0.000000042697311     0.625181749906091
3 5
     0.000000000000000     0.000000000000000    -0.000000000000000
     0.000000000000000    -0.000000000000000    -0.000000000000000
    -0.000000000000000     0.000000000000000     0.000000000000000
3 6
    -4.279156516120739     3.811875334806028    -2.517648791361068
     5.434145958454178   -13.525363172793632     2.793783714814917
    -0.195283748555992     3.755492019906889    -8.002500074209205
3 7
     0.132893130956260     0.316909775084411     0.361790499279805
     0.056112908961005    -0.240093371549262    -0.324828365551927
    -0.026401541041157    -0.485603570315092    -0.619280920321898
3 8
    -0.000857430612793    -0.000508484779410    -0.001965428477666
    -0.002723918682768     0.002472423652844    -0.006724798242763
     0.005932851661214    -0.003429794857795    -0.015766883858467
3 9
     0.000000000000000     0.000000000000000    -0.000000000000000
     0.000000000000000    -0.000000000000000    -0.000000000000000
    -0.000000000000000    -0.000000000000000     0.000000000000000
3 10
     0.082712928871464    -0.405321878714482    -0.147858667444501
     0.373109635424827     0.577118753743693     2.187238681506611
    -1.483603460595366     1.284987399867018    -2.602076743332643
3 11
     0.312162658882908    -0.638233613975192    -0.132873882946422
     0.140485958614063     0.343085439642270    -1.953539555536021
     1.439808692195050    -1.653501229536676    -2.601715092116293
3 12
     0.001982408287456    -0.001018755006192    -0.002782163864484
     0.002288494963890     0.002392712922146     0.018483940315647
     0.003581161217542     0.009661419248342     0.039786171487688
3 13
     0.000000000000000     0.000000000000000    -0.000000000000000
     0.000000000000000    -0.000000000000000    -0.000000000000000
    -0.000000000000000    -0.000000000000000     0.000000000000000
3 14
     0.244225302558764     0.365390277347708    -0.512192671192251
    -0.507928515555079     0.240510479355841    -0.365205206891619
     0.359078214709991     0.514961644075819    -0.821757031820803
3 15
    -0.813625119820966     1.320317860442598     0.116867209617337
     0.733244042788942    -0.815135032449382     0.112920787192756
    -0.112806681697421    -0.114098333019309    -1.305099715456550
3 16
     0.017131425570915    -0.010983589748086    -0.042759593521348
    -0.017999721544099     0.017826397896572     0.077014831857799
    -0.070659599091038     0.045528403428299     0.203774767024160
3 17
     0.000000000000000     0.000000000000000    -0.000000000000000
     0.000000000000000     0.000000000000000    -0.000000000000000
    -0.000000000000000    -0.000000000000000     0.000000000000000
3 18
    -0.018491829592890    -0.018608153559125     0.092185091333567
     0.072757414625825    -0.012064045413390     0.066084644771377