  47   47
1 1
    17.012250323081084    -0.244936483833115     2.169555842037800
    -0.244936483833115    40.190406322386750    -0.377621481074982
     2.169555842037800    -0.377621481074982    55.312844308753910
1 2
     0.053952229377532     0.000010830606463    -0.386481607093864
    -0.001264694691170     0.057896826822178     0.000601744069511
     0.040451491436732     0.035673564299710     0.598835828244181
1 3
     0.065560762252571    -0.002154718572623     0.051235963113416
    -0.003726468300342     0.078710565689309     0.012129386570867
    -0.367262570479446    -0.038987184699974     0.566958232638307
1 4
     0.136439388599635     0.313131172597276     0.347345841897325
     0.056688352014772    -0.232791885179437    -0.291789134314803
    -0.022976881889044    -0.497125650194501    -0.543469570835934
1 5
    -0.023131127997752    -0.031028792938688     0.079431542499900
    -0.013480828029188     0.012329952688064     0.096534000717012
    -0.122850845834559     0.231494035843795    -0.390382485715081
1 6
    -4.261936094037039     3.752739259807293    -2.447843873500406
     5.407403796123265   -13.504431501650407     2.691704971114022
    -0.159980799895911     3.695120501898429    -7.829404534749715
1 7
     0.313704857416406    -0.624417830444587    -0.137951942497265
     0.149064534253238     0.344636859737954    -1.928577435363749
     1.437378740409806    -1.677850787564428    -2.542427849186876
1 8
     0.072204623748901    -0.361250097233389    -0.350729066008244
     0.481176566229507     0.504375330417636     2.443021954221901
    -1.584882804981054     1.501226009816302    -3.057990514871644
1 9
    -0.815537551432108     1.314216248248307     0.095213478517615
     0.739870018284053    -0.819169733158298     0.127452654409980
    -0.127541599099980    -0.109911162108658    -1.296302884017929
1 10
     0.028710047090726    -0.013085279045114    -0.081120612976435
    -0.051409864484967    -0.029659619546364     0.090729006114344
    -0.070490739053366     0.042163499156432     0.179568118535094
1 11
     0.240071058179970     0.393733843987009    -0.548300941546206
    -0.484889298871488     0.238292118291365    -0.315956519501824
     0.315176728499957     0.560972164144736    -0.862487699774564
1 12
    -1.992497528479765     2.580613116033209     0.821540592478634
     2.156965091808649    -2.005328536838322    -0.243820224975964
    -0.230195917448144     0.809299902479152     2.168804803070593
1 13
    -0.019470929331237    -0.014688501061323    -0.165374971034669
     0.078383073237040    -0.024433160752483     0.003749800507524
     0.074837442619896     0.078176410682390    -0.104467626029952
1 14
    -0.034748539547489    -0.013471098420638     0.077533963871750
     0.092482603592781    -0.022403440452522     0.078715331432386
    -0.001015620600629    -0.165361329697518    -0.117321778416459
1 15
    -0.168505570707439    -0.025804609282360     0.325777124440640
     0.247859002926433     0.061400894634662    -0.300710378900794
     0.434637213749331    -0.018417249905978    -0.631836850890350
1 16
     0.026735135846932    -0.000261477578550     0.041257635380880
    -0.058063094297958    -0.016309330380708    -0.082559750816995
     0.088764724381215     0.018426587369558     0.140992050431799
1 17
     0.222827115870067    -0.050810858839898    -0.040219952843941
    -0.199318936256028     0.018030187032225    -0.402319696585266
     0.271764667277310     0.293201656357565     0.210318699895563
1 18
     0.465903380730381     0.061470151081453     0.057088293205188
    -0.135067249377254    -0.084660948751094     0.253914634737915
     0.211912144105069    -0.287702733640455    -0.005273934174164
1 19
     0.000459484195994    -0.003229281905843    -0.002833881046734
     0.002494608221964     0.011178856900445    -0.000680424275619
     0.003282141824385    -0.001880006135906     0.017112652546420
1 20
     0.232807101631948    -0.168600125073110    -0.343080461019189
    -0.388088968145316     0.151578367430018    -0.049173102790164
     0.138543954311499     0.222322520275365    -0.004711544650999
1 21
     0.085088084235285    -0.007539263515806     0.154809342914896
     0.003462137028402     0.026932140730566    -0.005050463225366
     0.150019244734948     0.000375423946203     0.149649194700174
1 22
     0.003632200801970    -0.002204577147443    -0.010750375955581
     0.000217565276794     0.002547040213259    -0.003721921377742
    -0.019736006537454    -0.000993057770239     0.036244327379006
1 23
    -0.500526850909317     0.004618247777811    -0.720569100453704
     0.002916601710541     0.119868014856842     0.004119222777502
    -0.709137017858207     0.010819629572239    -0.848277612864533
1 24
    -0.557703792756196    -0.003306780227370     0.667054460749761
     0.003618373164387    -0.240590447572151     0.001235693381649
    -0.672215946814077    -0.005075628076291     0.842733992701908
1 25
     0.036968809196358    -0.002062947507341    -0.097095486583575
    -0.001538552277024    -0.092063929486822    -0.000817997844618
    -0.150582296676116     0.001314810735265     0.149786531707282
1 26
     0.037043283325428    -0.005687923056916     0.143067074849748
    -0.005930205722247    -0.098864198044780    -0.002794453126857
     0.106016544391992     0.001564243324567     0.150062020738714
1 27
    -0.163405583698475     0.021296958869871     0.325820358223019
    -0.248016346369483     0.062592381912105     0.296888886731917
     0.438645282578892     0.020940893103757    -0.631803981075976
1 28
     0.025241629921370    -0.004059355469497     0.045723447256605
     0.051553307136876    -0.028429781190645     0.074192747712653
     0.086945287137722    -0.020495435683916     0.138841023399996
1 29
     0.243843279055999     0.063268929413718    -0.061237012978680
     0.171863867640251     0.013781979029333     0.393561830121651
     0.248230587780252    -0.315350680001999     0.199729821355958
1 30
     0.474161903957883    -0.062397380367537     0.057057550179958
     0.133496188070318    -0.079285645546626    -0.253872109054410
     0.210637156934870     0.286766601653277    -0.008364076695802
1 31
     0.004288147577468    -0.002445138609517    -0.004372896109794
    -0.009787186730056     0.010785123449369    -0.002478051093764
     0.004594667146818     0.000619890737051     0.014642106699218
1 32
     0.225510770180927     0.170323031715505    -0.338637077449911
     0.374504565259517     0.157377240743822     0.060720927650119
     0.138920104808693    -0.217461247370590    -0.009090791369409
1 33
    -0.811079275430047    -1.324840976373255     0.122067328677336
    -0.717583204211816    -0.811779854910313    -0.115780723168640
    -0.124603083881625     0.111093493583414    -1.300061560763769
1 34
     0.016745839678478     0.009791649390647    -0.048436200905823
     0.004806320614515     0.014310135713939    -0.069841289038633
    -0.078531703886905    -0.048523549996406     0.201785109301423
1 35
     0.236390145594472    -0.349913315188134    -0.502837474550535
     0.503103030230649     0.230593612555715     0.373181241921810
     0.363949827396475    -0.513297939326608    -0.787285447772884
1 36
    -1.960329707880197    -2.509516520605208     0.812141890992746
    -2.112555339025956    -1.949351484639462     0.218198388114452
    -0.200618157725390    -0.783429077704934     2.150245673978656
1 37
    -0.013787941381506     0.015990008133813    -0.171096520974671
    -0.081707815695303    -0.020661985887671    -0.010979058235332
     0.059380852094282    -0.089127944981872    -0.091672853401870
1 38
    -0.022350092845810     0.017124583694083     0.083851091163882
    -0.075493124635458    -0.014365813970452    -0.072058066318857
     0.007986305415019     0.172370244062248    -0.099870310450271
1 39
     0.134374909907576    -0.315494598179371     0.353534065918761
    -0.060199769491234    -0.240492444087260     0.322141029588565
    -0.027686702672514     0.487138381644841    -0.602397893763456
1 40
    -0.019323238088038     0.020466671679981     0.007868173241356
    -0.006581429501065    -0.009228558660637    -0.139226037316456
    -0.104009545829280    -0.090950853082300    -0.303699588943894
1 41
    -4.180814952119350    -3.646850317220746    -2.410335035874708
    -5.243292261581541   -13.312831882406142    -2.604779803945320
    -0.040503854082171    -3.534906700034409    -7.788083522113282
1 42
     0.316803928342856     0.635568293010289    -0.132039091250638
    -0.158248837904409     0.314807547251332     1.986790657279892
     1.439854297867619     1.672433398040614    -2.606685090511027
1 43
     0.007494291293010     0.002513478191021    -0.002610645559508
    -0.015209813726494    -0.003635130988855    -0.009076764890702
     0.007218711275776     0.009678027241346     0.091952165512729
1 44
     0.108477617012628     0.393175757293659    -0.103447822708331
    -0.369257646708552     0.527391358686340    -2.161474957944004
    -1.456676006429998    -1.353172006449707    -2.535304617527869
1 45
    -4.681342872909365    -0.012569909520567     2.135498153039622
    -0.024834126733089    -8.367356975694122    -0.001037625599568
    -2.112650806719107    -0.013017459180639   -26.132968536495756
1 46
    -0.004873187331913     0.001594472609523    -0.047959910095175
     0.058682775478802     0.017468862759429    -0.041590889744220
     0.070810357036014     0.005023325160113     0.235621982737100
1 47
    -0.596325511220812     0.030981453077020     0.180888746366752
    -0.010130831702199    -1.159165430137080    -0.041795748651020
    -0.135365408857393    -0.107556050446060    -2.425085487264572
2 1
     0.053952229377532    -0.001264694691170     0.040451491436732
     0.000010830606463     0.057896826822178     0.035673564299710
    -0.386481607093864     0.000601744069511     0.598835828244181
2 2
    17.585271194944603    -1.156932034276952     2.331631849694671
    -1.156932034276952    37.831418747513453    -0.836605380991758
     2.331631849694671    -0.836605380991758    51.388024559254340
2 3
     0.012996759546280    -0.004960564016175    -0.291633167084507
    -0.041265211695786     0.046716950256491    -0.240958438814341
    -0.002881755057931     0.005834926425498     0.368109644200887
2 4
    -4.461057651721023     3.917586475821677    -2.562841198227741
     5.166391987029143   -13.604627964814824     3.031049724466572
    -0.165091731004593     4.000833439407073    -7.549513129289271
2 5
    -0.011027640694111    -0.041951298625798    -0.200466928119959
     0.065697584674285    -0.193734305660457    -0.128984037261518
    -0.019681113885317     0.080047056817209     0.158990296104607
2 6
    -0.007446414219885    -0.016786012353331     0.006364144784952
     0.002241585879258     0.005108774509022     0.131092300045221
    -0.101048701503288     0.098973654744165    -0.293208960124721
2 7
     0.110044071719365    -0.418520219411552     0.036582365652326
     0.360855457287318     0.588015952304216     1.735040608536724
    -1.413162290148486     1.031549985849072    -2.024186698254351
2 8
     0.006983516277502    -0.001360279668946     0.000341473363891
     0.001276460176229     0.001547856407312    -0.011819412698534
     0.005083946857032    -0.017528905807824     0.045929438916143
2 9
     0.233033673525638     0.369783524548235    -0.482056564469490
    -0.509436301665903     0.231212876631029    -0.382006745396945
     0.372346621151968     0.462996261104445    -0.726606670617298
2 10
    -0.832113594074543     1.138595079914939     0.914751918616911
     1.088371513693100    -1.072072062036163    -0.728107262266077
     0.760271181777037    -0.164464215095791    -1.828224556215566
2 11
     0.004275644812737    -0.005477060159223    -0.020566488691413
     0.012246030994818    -0.004098393024992    -0.016791426573142
     0.004316188520422    -0.002043229657931    -0.004749936441643
2 12
    -0.021710403315350    -0.015940869245533     0.080669470462160
     0.080558756848963    -0.015624622695726     0.077556633615149
     0.003537332891600    -0.164856644524823    -0.103071066046397
2 13
    -1.955792540060363     2.777793205227122     0.698718736596306
     2.538815104539346    -1.915975152428055    -0.170613614495638
    -0.214319789686290     0.747203456467126     2.127324954192225
2 14
    -0.023888246694052    -0.029979602139554    -0.169496943785137
    -0.004676739021927    -0.026762578673129     0.123560488873872
    -0.020797494534639     0.084786025314212     0.082306143256095
2 15
     0.132028723886135    -0.012663788106795    -0.112230286034496
    -0.364733956929568     0.062608868006853    -0.278223913500909
     0.284313009494851     0.240715743443722     0.254504977949209
2 16
    -0.149350725957385    -0.046382509075422     0.301411998919661
     0.127726497082254     0.047573957965035    -0.240897570208810
     0.234916191907126    -0.042061912148015    -0.522902435903976
2 17
     0.032392187606777     0.002914680700664     0.047369442902750
    -0.055188739541423    -0.021590371821412    -0.074761761564201
     0.086965998064347     0.023291377594982     0.139182650057065
2 18
     0.254466296047455    -0.147588285839960    -0.328882790660167
    -0.356809129444984     0.150810945359611    -0.033761249480647
     0.197098884365498     0.180842476959896     0.045332970692214
2 19
     0.582749651695186     0.067050313515280    -0.034159843240031
    -0.315091371080605    -0.062710882493416     0.323063322775275
    -0.203878088697733    -0.289445492952619    -0.001408561232848
2 20
     0.001079137681965    -0.000660006654917    -0.002290482043850
    -0.001490748451389     0.002556979853863    -0.000713554802945
     0.005344998021128    -0.000294053034611     0.007566005370310
2 21
    -0.528219795862203     0.001094290893847    -0.738205355933957
     0.011282330705820     0.124940538550639     0.009649157089992
    -0.692659808198716     0.003175691401897    -0.813589146761922
2 22
     0.162490693751212     0.008333862234288     0.160284036824006
     0.038651983704975     0.056742558529358     0.026921580665920
     0.125598634264288    -0.006961889260691     0.149643288767959
2 23
     0.004185029905132    -0.002188852958391    -0.016649885888489
     0.005836173424438    -0.005590510925465    -0.007826212077374
    -0.009005256372802     0.001207656245096     0.023381148135273
2 24
     0.039487326248087     0.000816118078490     0.151371504973755
    -0.000165069614827    -0.096640394191761     0.000477036403851
     0.095874387610274     0.001737298000658     0.149676457781185
2 25
    -0.552357955448773    -0.042720638808838     0.717133907258066
     0.045004200601977    -0.175411312430976    -0.020157397775660
    -0.626537966423120     0.010622353548239     0.754219512948575
2 26
     0.034293534749298    -0.002384200895278    -0.110882463455577
     0.060939131149909    -0.070303837246598    -0.035925410709708
    -0.074511322194801     0.039456823108410     0.109288364397376
2 27
     0.127764760615106     0.012232606093447    -0.029638032390439
     0.106159805037453    -0.039950450328873     0.355295950850280
     0.203146761555799    -0.311432165414924     0.139704139209537
2 28
    -0.173888276476196     0.015432125028913     0.306602508109751
    -0.208100041192327     0.107382173391309     0.261587744544382
     0.471942574373549     0.062810480446947    -0.603309433989089
2 29
     0.031908190348244    -0.002094319338637     0.045907560223592
     0.050912185192291    -0.018361825550113     0.074378245904707
     0.083382115719662    -0.020980950664263     0.135905648142669
2 30
     0.202237977509474     0.156121745513896    -0.355865735503059
     0.402783089336242     0.176867313978058     0.062745531957235
     0.248984142278987    -0.168565482844544     0.078516349485513
2 31
     0.540715683071086     0.020009098196571     0.008170359589035
     0.061174808467736    -0.094194049566123    -0.223930685634394
     0.185596831293378     0.238246571794949     0.021056440265317
2 32
     0.002484796362282    -0.001669518056643    -0.005204427083963
     0.000095983476251     0.000507635685283    -0.003768729845375
     0.002643307417664    -0.000446244911245     0.010738225109328
2 33
     0.240651093862336    -0.382554395553468    -0.511467045638158
     0.533971196898825     0.274333645413651     0.418983390274143
     0.419356082106676    -0.432205121366210    -0.661659892132171
2 34
    -0.977601101490074    -1.371234724518684     0.303083849132156
    -0.607976668287164    -0.688713032121896    -0.005047920895303
    -0.537366851700509    -0.270694052052070    -1.353353913509322
2 35
     0.016978822304437     0.008590097937864    -0.046190245826426
     0.019037522475956     0.019542722102337    -0.088615080959636
    -0.077842645818635    -0.038503112499795     0.201536514307496
2 36
    -0.024358693665712     0.016799528419203     0.083341211930759
    -0.076308577224740    -0.011009538800476    -0.066991293058133
     0.011127550083314     0.171867270745475    -0.097452695634601
2 37
    -1.729600218659316    -2.324010514007890     0.780228709360443
    -1.940076068887916    -1.804165974299303     0.081714271207091
    -0.291521629329416    -0.795556754465432     2.117816552393856
2 38
    -0.025318049681269     0.001287123040022    -0.157541264695293
    -0.070083659178141     0.005661147845850    -0.047131814130289
     0.068690130281451    -0.047883197544543    -0.111230553972432
2 39
    -4.367072806923395    -3.888062543747752    -2.709946327282004
    -4.960475021098949   -12.419015001043745    -2.847021404567833
    -0.325808275254821    -3.470549069393052    -7.239830039790325
2 40
     0.037554220085632    -0.433506030294251     0.506301863675150
    -0.113482056168136    -0.226127167299142     0.525661106490945
     0.037062046564242     0.446107711007288    -0.800734514675161
2 41
    -0.015629905008128     0.015087851331365     0.007241217607337
    -0.000496436727002     0.002435857334741    -0.130237141220476
    -0.097072880767246    -0.094973801938769    -0.294836456216675
2 42
     0.118975567060900     0.488157232958023     0.046607886120707
    -0.283410417803543     0.610632367355071    -1.844736472023983
    -1.516362024547619    -1.256267343792332    -2.555906036222516
2 43
     0.399614577506434     0.926046790588340    -0.124311785691490
    -0.220107490110155     0.138657433289836     2.153796279236003
     1.856129879129133     1.805396101778968    -2.619466705166526
2 44
     0.005976920945211    -0.000738435107071     0.000197875810972
    -0.005333524196735     0.002792358339973    -0.011698799943241
     0.005284773733127     0.012170527930472     0.068249787452315
2 45
    -0.552769708319695    -0.010356102731353     0.097476188165241
    -0.001951653816253    -1.138084953981376    -0.223113703310817
    -0.193912304443194    -0.050140136863873    -2.743553953980605
2 46
    -4.551182957004834     0.433223217019428     1.394970205230958
     0.535740636858098    -6.830393257103734    -0.692230348375080
    -1.175714023917661    -1.292954427281510   -26.456833039419209
2 47
    -0.014205596169737    -0.014967466778024    -0.056684514696639
    -0.022189939726722    -0.010806848907415    -0.035570154654307
     0.045012141423460     0.024938950301315     0.229788498962951
3 1
     0.065560762252571    -0.003726468300342    -0.367262570479446
    -0.002154718572623     0.078710565689309    -0.038987184699974
     0.051235963113416     0.012129386570867     0.566958232638307
3 2
     0.012996759546280    -0.041265211695786    -0.002881755057931
    -0.004960564016175     0.046716950256491     0.005834926425498
    -0.291633167084507    -0.240958438814341     0.368109644200887
3 3
    16.755256226922413     0.205054684844938     3.055053027775666
     0.205054684844938    42.874995620202682     0.471578082659812
     3.055053027775666     0.471578082659812    47.788770492289338
3 4
    -0.047466266773247    -0.022836849831814     0.096719857974039
    -0.008245250218632    -0.045811066563098    -0.018767890866279
    -0.096773332468877     0.168876697890936    -0.131560036834344
3 5
    -3.475166162294959     3.766269962984701    -2.428368627284860
     6.038913759684968   -17.153766662094668     4.413015072710638
    -1.076332000619703     4.755152215113513    -5.961332853081116
3 6
     0.116865036044323     0.321478276454621     0.293864817310933
     0.082890000679931    -0.256443717924159    -0.363840460321930
    -0.020599145829572    -0.442658426881795    -0.508603612052936
3 7
     0.002876201953883    -0.003544225637152    -0.015651686783988
    -0.000711375054917     0.000434300396970     0.028633135288588
     0.009068360898190    -0.001170069092228     0.040985829128613
3 8
     0.330606896184573    -0.778238089380974    -0.076071526678099
     0.073450716956821     0.795092304534432    -1.396729722350784
     1.213855941775259    -1.168743633241965    -2.425412680761525
3 9
     0.029993318205993    -0.009687133095005    -0.046470849457943
    -0.016767138851380     0.030526613948975     0.073333891204457
    -0.076638565932380     0.044424079779529     0.200348858548018
3 10
     0.090531957997830     0.278178532853062    -0.325844705605628
    -0.318385680331147    -0.103252175927779    -0.327933876543515
    -0.158859292640082     0.464765881200217    -0.586360951668496
3 11
    -0.794675918607088     1.137804691708851     0.124159500603054
     0.340604527080165    -0.623197302699558     0.652902156941340
    -0.200182766116896    -0.058599993345868    -1.219535397389481
3 12
    -0.012402495588319    -0.011776447987533    -0.176021377598450
     0.094742224749497    -0.028951928678593    -0.013948253613480
     0.080078445764837     0.070600162562367    -0.110340027946612
3 13
    -0.043034597269832    -0.021499357081712     0.057051355835804
     0.000561629410290    -0.043634569530170     0.002211304270378
     0.097673402829021    -0.155147222881303     0.008961805375535
3 14
    -2.612963073801130     2.778616671743054     0.520858166420594
     2.604162647347583    -2.660496768589009    -0.243666538654266
    -0.054845568009009     0.257510504802389     1.657146106618313
3 15
    -0.001967851832251    -0.004546066751428     0.020338929599072
     0.018865376349635    -0.034776642782922     0.014579413422310
    -0.012423196681861     0.017543543141901     0.013285918765894
3 16
     0.519261589791235     0.034725834354553    -0.036308472142542
    -0.772405336005850     0.021892567505724    -0.448017689005387
     0.286283206795900     0.166149482457829     0.316287601050950
3 17
    -0.161264738659615    -0.018165969571310     0.337234455174367
     0.262326380665779     0.058406648920107    -0.323244461277626
     0.445456622047962    -0.015178543808070    -0.635775986497508
3 18
     0.000697788548533    -0.001163706185611    -0.002164685422692
    -0.000725778035855    -0.002536830583190     0.001432156626836
    -0.000286996445843    -0.001491181562219     0.008830288903294
3 19
     0.182838925626443    -0.178635384660546    -0.216895892303905
    -0.333228212012693     0.123790787435134    -0.081739816205635
    -0.002231686905973     0.144392864654804    -0.032672423140147
3 20
     0.480335134763383     0.063857152625268     0.098092941427015
    -0.081104032782423    -0.061416377743432     0.120852888451822
     0.183321926888896    -0.285477520318958     0.018515289783345
3 21
     0.018697260062131    -0.000685976938796    -0.013320506029696
     0.000244594949169     0.003281009329546    -0.000371760907995
    -0.019803744054502     0.000351596522003     0.034782737709609
3 22
    -0.412194071534198     0.044768920311073    -0.675799939860067
    -0.004204657816916     0.112662672109378    -0.028704203832536
    -0.558212871873818     0.054470527801711    -0.759830421123897
3 23
     0.103567300027508     0.032961330795475     0.103037568318185
     0.062905309969599     0.009195278751038    -0.002497967442075
     0.102003190284501     0.022511600066709     0.161727688180109
3 24
     0.046960055784106     0.000053911587656    -0.091134201347639
     0.001504884720632    -0.086775074685814    -0.004722409652356
    -0.141184802569137    -0.002947434681390     0.139177139261395
3 25
     0.026135816888940    -0.006216837927681     0.137536733807956
     0.059342142396371    -0.079784963251980     0.034460479672521
     0.027328912645288    -0.034100802514019     0.102968617372419
3 26
    -0.497770997264317    -0.078665894532021     0.581873035698434
     0.159276640789949    -0.268813905387837     0.050566090565019
    -0.496190956868454     0.098616704850104     0.782055989682297
3 27
     0.018958743590850    -0.005621068303651     0.049585148108662
     0.070507017143814    -0.015472226375922     0.095192346047181
     0.078058353485195    -0.038270447280249     0.131103230689883
3 28
     0.094391840326521     0.037161273762229    -0.114125786482598
     0.174396115065091    -0.001614770519872     0.424657199864997
     0.442013122369872    -0.262094992769561     0.158758728785644
3 29
    -0.165294407964845     0.015337343490056     0.344685496808327
    -0.232780989755040     0.075149547642777     0.284035042081511
     0.428765830894670     0.026901515968894    -0.625650061496522
3 30
     0.001598376577158    -0.000672766688278    -0.002287530303019
     0.001510730268942    -0.000524066740669     0.001034259679155
     0.003710651613772     0.000159449858248     0.012001924237303
3 31
     0.296845305968182     0.180451531569991    -0.255405614299355
     0.393524686822886     0.153846120705751     0.064878230654699
     0.175776059591443    -0.179105529809385     0.005024177767038
3 32
     0.445290860098754    -0.044471026998353     0.070064134934754
     0.194278508517721    -0.029840006199033    -0.311120089732427
     0.122924264909829     0.254857867209791     0.056350731665928
3 33
     0.030733704652578     0.010707091116603    -0.045238011015257
     0.019259521773572     0.027794752572787    -0.072158070993824
    -0.079389800961074    -0.044040955111756     0.202442929640351
3 34
     0.234261166247528    -0.269911781900818    -0.515761595990573
     0.391744463489333     0.236444526330925     0.247502584651122
     0.346781662182132    -0.530298717914762    -0.797691510838293
3 35
    -0.627608598089417    -1.058271087028387    -0.083979193184121
    -0.832251350528848    -0.742742661720008    -0.113525556735399
    -0.133415873610785     0.180738086978686    -1.314757988407804
3 36
    -0.003327142349230     0.013657516988071    -0.158569703334586
    -0.081181041491816    -0.014800525678635     0.006200615469576
     0.073798705452940    -0.073178809149180    -0.113295292980136
3 37
    -0.025778956603727     0.018844063715191     0.090861488915660
    -0.076308060456459     0.010073817860580    -0.019300182418473
     0.002196516729588     0.144971398224193    -0.037065172493343
3 38
    -1.732783292747630    -2.124521956965236     0.824306040252087
    -2.310656211981576    -1.923405654539147     0.195170996513513
    -0.347745790107726    -0.607241710186543     2.155008791285092
3 39
    -0.025203862537120     0.014625333831039    -0.020703333503107
    -0.018310639513388     0.016649553025989    -0.124880292097775
    -0.096008123452441    -0.046586030639714    -0.271153298664701
3 40
    -4.577980865412168    -4.772444797134285    -2.838217331207955
    -5.668630013127591   -12.714570624861750    -3.331911748241376
    -1.195684740740348    -4.341096202627218    -8.189372443765015
3 41
     0.145607876568729    -0.318643801856776     0.409233550398805
    -0.082961704935753    -0.211038766645338     0.286717293965431
    -0.001840867323103     0.414123828691230    -0.441285817105999
3 42
     0.004127156933987     0.000845888476380    -0.006404246449673
    -0.005266393320329     0.006212877371619    -0.001498271482066
     0.000779411573134    -0.006199674411596     0.063635182490530
3 43
     0.026931024715023     0.219711914308847    -0.504688180392650
    -0.151148168064605     0.475362041770042    -2.623960833864055
    -1.672721605153928    -1.539599848253406    -2.584285315756597
3 44
     0.348523710242350     0.790851677858545    -0.242282368438741
    -0.349603307839915     0.056048204609059     2.366467212439668
     1.186402029421048     1.441015219734693    -2.445526679589236
3 45
    -0.006697369633308     0.000141688660027    -0.072610012912183
    -0.000379116614394    -0.018206162656052    -0.000308145901284
     0.069167128998819     0.002139250121191     0.221290835393300
3 46
    -0.501838848505317     0.059989628546206     0.120971595909062
     0.145472863408854    -0.712436780822412     0.278946542289304
     0.280065192934534     0.350889831921930    -2.250326046640238
3 47
    -4.705031279054094    -0.250883016132942     1.998941858294229
    -0.043169685757217    -7.378976527768271    -0.228366495054862
    -2.028793035525894     0.509316406511975   -23.772694753229452
4 1
     0.136439388599635     0.056688352014772    -0.022976881889044
     0.313131172597276    -0.232791885179437    -0.497125650194501
     0.347345841897325    -0.291789134314803    -0.543469570835934
4 2
    -4.461057651721023     5.166391987029143    -0.165091731004593
     3.917586475821677   -13.604627964814824     4.000833439407073
    -2.562841198227741     3.031049724466572    -7.549513129289271
4 3
    -0.047466266773247    -0.008245250218632    -0.096773332468877
    -0.022836849831814    -0.045811066563098     0.168876697890936
     0.096719857974039    -0.018767890866279    -0.131560036834344
4 4
    28.433762770924929   -11.575500408294721    -3.011381696271517
   -11.575500408294721    27.943933018877885    -2.745821292988481
    -3.011381696271517    -2.745821292988481    54.386494203247345
4 5
     0.025258888579084    -0.023033090234593    -0.022316352608175
    -0.026063323171067     0.032073117406321    -0.003077024502250